# USER_LATT cell with dimension 2 x 2 x 1 and a = 1
        24  atoms
         2  atom types

 0.     6.38063146000000  xlo xhi
 0.     5.52578894000000  ylo yhi
 0.    14.87900430000000  zlo zhi
   -3.19031572000000     0.00000000000000     0.00000000000000 xy xz yz

Atoms

1 1     1.59515946182453     0.92096390236851    11.15925322500000
2 1    -0.00000159182453     1.84193056763149     3.71975107500000
3 2    -0.00000159182453     1.84193056763149    12.72413762324820
4 2     1.59515946182453     0.92096390236851     5.28463547324820
5 2    -0.00000159182453     1.84193056763149     9.59436882675180
6 2     1.59515946182453     0.92096390236851     2.15486667675180
7 1     4.78547519182453     0.92096390236851    11.15925322500000
8 1     3.19031413817547     1.84193056763149     3.71975107500000
9 2     3.19031413817547     1.84193056763149    12.72413762324820
10 2     4.78547519182453     0.92096390236851     5.28463547324820
11 2     3.19031413817547     1.84193056763149     9.59436882675180
12 2     4.78547519182453     0.92096390236851     2.15486667675180
13 1     0.00000160182453     3.68385837236851    11.15925322500000
14 1    -1.59515945182453     4.60482503763149     3.71975107500000
15 2    -1.59515945182453     4.60482503763149    12.72413762324820
16 2     0.00000160182453     3.68385837236851     5.28463547324820
17 2    -1.59515945182453     4.60482503763149     9.59436882675180
18 2     0.00000160182453     3.68385837236851     2.15486667675180
19 1     3.19031733182453     3.68385837236851    11.15925322500000
20 1     1.59515627817547     4.60482503763149     3.71975107500000
21 2     1.59515627817547     4.60482503763149    12.72413762324820
22 2     3.19031733182453     3.68385837236851     5.28463547324820
23 2     1.59515627817547     4.60482503763149     9.59436882675180
24 2     3.19031733182453     3.68385837236851     2.15486667675180
