# USER_LATT cell with dimension 2 x 2 x 1 and a = 1
        12  atoms
         2  atom types

 -3     8.18000001460000  xlo xhi
 -3     6.83597385869067  ylo yhi
-4.59499998630000 4.59499998630000  zlo zhi

Atoms

1 1 0.00000000000000 0.00000000000000 0.00000000000000 
2 2 1.59000001460000 0.91798692869067 1.59499998630000 
3 2 1.59000001460000 0.91798692869067 -1.59499998630000 
4 1 3.59000000000000 0.00000000000000 0.00000000000000 
5 2 5.18000001460000 0.91798692869067 1.59499998630000 
6 2 5.18000001460000 0.91798692869067 -1.59499998630000 
7 1 0.00000000000000 2.91798693000000 0.00000000000000 
8 2 1.59000001460000 3.83597385869067 1.59499998630000 
9 2 1.59000001460000 3.83597385869067 -1.59499998630000 
10 1 3.59000000000000 2.91798693000000 0.00000000000000 
11 2 5.18000001460000 3.83597385869067 1.59499998630000 
12 2 5.18000001460000 3.83597385869067 -1.59499998630000 
