nqpoint: 474    
natom:   24     
reciprocal_lattice:
- [   0.18367477,   0.00000000,   0.00000000 ] # a*
- [   0.00000000,   0.15906703,   0.00000000 ] # b*
- [   0.00000000,   0.00000000,   0.00937842 ] # c*
phonon:
- q-position: [    0.0000000,    0.0000000,    0.0000000 ]
  band:
  - # 1
    frequency:   -0.0000430347
  - # 2
    frequency:   -0.0000400384
  - # 3
    frequency:   -0.0000228948
  - # 4
    frequency:    0.6370289997
  - # 5
    frequency:    0.6370291038
  - # 6
    frequency:    1.1274983421
  - # 7
    frequency:    4.5454729004
  - # 8
    frequency:    4.5454729004
  - # 9
    frequency:    4.5493831875
  - # 10
    frequency:    4.6091609565
  - # 11
    frequency:    4.6091609565
  - # 12
    frequency:    4.6110435521
  - # 13
    frequency:    5.1122992251
  - # 14
    frequency:    5.1600406737
  - # 15
    frequency:    5.8916846421
  - # 16
    frequency:    5.8916846421
  - # 17
    frequency:    5.9317154405
  - # 18
    frequency:    5.9317154405
  - # 19
    frequency:    7.1833586660
  - # 20
    frequency:    7.1833586660
  - # 21
    frequency:    7.2281778640
  - # 22
    frequency:    7.2281778640
  - # 23
    frequency:    7.8702803464
  - # 24
    frequency:    7.8702806263
  - # 25
    frequency:    7.9254088758
  - # 26
    frequency:    7.9254091723
  - # 27
    frequency:    7.9492877386
  - # 28
    frequency:    7.9829675020
  - # 29
    frequency:    8.9893631336
  - # 30
    frequency:    9.0569845494
  - # 31
    frequency:    9.6240241241
  - # 32
    frequency:    9.6240241241
  - # 33
    frequency:    9.6947343304
  - # 34
    frequency:    9.6947343304
  - # 35
    frequency:   10.1888716227
  - # 36
    frequency:   10.1888716227
  - # 37
    frequency:   10.2548056004
  - # 38
    frequency:   10.2548056004
  - # 39
    frequency:   10.4757309745
  - # 40
    frequency:   10.5869689245
  - # 41
    frequency:   10.6028562516
  - # 42
    frequency:   10.6028562516
  - # 43
    frequency:   10.6763399377
  - # 44
    frequency:   10.6763403091
  - # 45
    frequency:   10.7010313682
  - # 46
    frequency:   10.7010313682
  - # 47
    frequency:   10.7032019006
  - # 48
    frequency:   10.7032022806
  - # 49
    frequency:   10.8971345482
  - # 50
    frequency:   10.9517523158
  - # 51
    frequency:   11.1166692109
  - # 52
    frequency:   11.1566531429
  - # 53
    frequency:   11.3569618357
  - # 54
    frequency:   11.4954626017
  - # 55
    frequency:   11.7394343885
  - # 56
    frequency:   11.7394343885
  - # 57
    frequency:   11.7769974772
  - # 58
    frequency:   11.7769974772
  - # 59
    frequency:   11.9554580416
  - # 60
    frequency:   11.9554580416
  - # 61
    frequency:   11.9997268167
  - # 62
    frequency:   11.9997268167
  - # 63
    frequency:   12.3230094865
  - # 64
    frequency:   12.3670551953
  - # 65
    frequency:   12.4570398594
  - # 66
    frequency:   12.4570398594
  - # 67
    frequency:   12.5195701281
  - # 68
    frequency:   12.5195701281
  - # 69
    frequency:   12.5412096953
  - # 70
    frequency:   12.5857806808
  - # 71
    frequency:   13.6133461731
  - # 72
    frequency:   13.6896166779

- q-position: [    0.0057803,    0.0000000,    0.0000000 ]
  band:
  - # 1
    frequency:   -0.0110394325
  - # 2
    frequency:    0.0411689409
  - # 3
    frequency:    0.0754573007
  - # 4
    frequency:    0.6383677168
  - # 5
    frequency:    0.6415631173
  - # 6
    frequency:    1.1273783944
  - # 7
    frequency:    4.5456458152
  - # 8
    frequency:    4.5456458152
  - # 9
    frequency:    4.5491942693
  - # 10
    frequency:    4.6093291262
  - # 11
    frequency:    4.6093291262
  - # 12
    frequency:    4.6108556814
  - # 13
    frequency:    5.1118384162
  - # 14
    frequency:    5.1595885223
  - # 15
    frequency:    5.8910033768
  - # 16
    frequency:    5.8910033768
  - # 17
    frequency:    5.9310232440
  - # 18
    frequency:    5.9310232440
  - # 19
    frequency:    7.1838827620
  - # 20
    frequency:    7.1838827620
  - # 21
    frequency:    7.2286748746
  - # 22
    frequency:    7.2286748746
  - # 23
    frequency:    7.8703789678
  - # 24
    frequency:    7.8707153756
  - # 25
    frequency:    7.9255090251
  - # 26
    frequency:    7.9258280254
  - # 27
    frequency:    7.9490602155
  - # 28
    frequency:    7.9827527234
  - # 29
    frequency:    8.9892764948
  - # 30
    frequency:    9.0568972257
  - # 31
    frequency:    9.6238384281
  - # 32
    frequency:    9.6238384281
  - # 33
    frequency:    9.6945325652
  - # 34
    frequency:    9.6945325652
  - # 35
    frequency:   10.1890250146
  - # 36
    frequency:   10.1890250146
  - # 37
    frequency:   10.2549511303
  - # 38
    frequency:   10.2549511303
  - # 39
    frequency:   10.4758125982
  - # 40
    frequency:   10.5870541219
  - # 41
    frequency:   10.6027825798
  - # 42
    frequency:   10.6027825798
  - # 43
    frequency:   10.6761306312
  - # 44
    frequency:   10.6763775461
  - # 45
    frequency:   10.7009558738
  - # 46
    frequency:   10.7009558738
  - # 47
    frequency:   10.7029385296
  - # 48
    frequency:   10.7032405975
  - # 49
    frequency:   10.8968776694
  - # 50
    frequency:   10.9515345230
  - # 51
    frequency:   11.1166342287
  - # 52
    frequency:   11.1566170698
  - # 53
    frequency:   11.3573090748
  - # 54
    frequency:   11.4957473138
  - # 55
    frequency:   11.7392926707
  - # 56
    frequency:   11.7392926707
  - # 57
    frequency:   11.7768557023
  - # 58
    frequency:   11.7768557023
  - # 59
    frequency:   11.9556144603
  - # 60
    frequency:   11.9556144603
  - # 61
    frequency:   11.9998884136
  - # 62
    frequency:   11.9998884136
  - # 63
    frequency:   12.3229940520
  - # 64
    frequency:   12.3670418062
  - # 65
    frequency:   12.4570824838
  - # 66
    frequency:   12.4570824838
  - # 67
    frequency:   12.5196077203
  - # 68
    frequency:   12.5196077203
  - # 69
    frequency:   12.5412182736
  - # 70
    frequency:   12.5858348546
  - # 71
    frequency:   13.6132286716
  - # 72
    frequency:   13.6894968373

- q-position: [    0.0115607,    0.0000000,    0.0000000 ]
  band:
  - # 1
    frequency:   -0.0216579282
  - # 2
    frequency:    0.0823345793
  - # 3
    frequency:    0.1509038923
  - # 4
    frequency:    0.6423666985
  - # 5
    frequency:    0.6549638698
  - # 6
    frequency:    1.1270207575
  - # 7
    frequency:    4.5461643719
  - # 8
    frequency:    4.5461643719
  - # 9
    frequency:    4.5486275315
  - # 10
    frequency:    4.6098334528
  - # 11
    frequency:    4.6098334528
  - # 12
    frequency:    4.6102920868
  - # 13
    frequency:    5.1104563775
  - # 14
    frequency:    5.1582323656
  - # 15
    frequency:    5.8889634885
  - # 16
    frequency:    5.8889634885
  - # 17
    frequency:    5.9289510053
  - # 18
    frequency:    5.9289510053
  - # 19
    frequency:    7.1854508669
  - # 20
    frequency:    7.1854508669
  - # 21
    frequency:    7.2301622039
  - # 22
    frequency:    7.2301622039
  - # 23
    frequency:    7.8706747924
  - # 24
    frequency:    7.8720191326
  - # 25
    frequency:    7.9258094324
  - # 26
    frequency:    7.9270841233
  - # 27
    frequency:    7.9483775275
  - # 28
    frequency:    7.9821081676
  - # 29
    frequency:    8.9890166021
  - # 30
    frequency:    9.0566352782
  - # 31
    frequency:    9.6232814581
  - # 32
    frequency:    9.6232814581
  - # 33
    frequency:    9.6939274993
  - # 34
    frequency:    9.6939274993
  - # 35
    frequency:   10.1894850988
  - # 36
    frequency:   10.1894850988
  - # 37
    frequency:   10.2553876243
  - # 38
    frequency:   10.2553876243
  - # 39
    frequency:   10.4760569291
  - # 40
    frequency:   10.5873090378
  - # 41
    frequency:   10.6025618999
  - # 42
    frequency:   10.6025618999
  - # 43
    frequency:   10.6755026477
  - # 44
    frequency:   10.6764903577
  - # 45
    frequency:   10.7007297829
  - # 46
    frequency:   10.7007297829
  - # 47
    frequency:   10.7021492176
  - # 48
    frequency:   10.7033566740
  - # 49
    frequency:   10.8961077682
  - # 50
    frequency:   10.9508814113
  - # 51
    frequency:   11.1165292923
  - # 52
    frequency:   11.1565088612
  - # 53
    frequency:   11.3583488358
  - # 54
    frequency:   11.4966003701
  - # 55
    frequency:   11.7388676919
  - # 56
    frequency:   11.7388676919
  - # 57
    frequency:   11.7764306033
  - # 58
    frequency:   11.7764306033
  - # 59
    frequency:   11.9560832969
  - # 60
    frequency:   11.9560832969
  - # 61
    frequency:   12.0003727072
  - # 62
    frequency:   12.0003727072
  - # 63
    frequency:   12.3229480821
  - # 64
    frequency:   12.3670018685
  - # 65
    frequency:   12.4572101996
  - # 66
    frequency:   12.4572101996
  - # 67
    frequency:   12.5197203577
  - # 68
    frequency:   12.5197203577
  - # 69
    frequency:   12.5412440310
  - # 70
    frequency:   12.5859968721
  - # 71
    frequency:   13.6128761896
  - # 72
    frequency:   13.6891373365

- q-position: [    0.0173410,    0.0000000,    0.0000000 ]
  band:
  - # 1
    frequency:   -0.0315000039
  - # 2
    frequency:    0.1234935489
  - # 3
    frequency:    0.2263285592
  - # 4
    frequency:    0.6489754927
  - # 5
    frequency:    0.6766714018
  - # 6
    frequency:    1.1264321426
  - # 7
    frequency:    4.5470280080
  - # 8
    frequency:    4.5470280080
  - # 9
    frequency:    4.5476830245
  - # 10
    frequency:    4.6093528209
  - # 11
    frequency:    4.6106733892
  - # 12
    frequency:    4.6106733892
  - # 13
    frequency:    5.1081542706
  - # 14
    frequency:    5.1559730955
  - # 15
    frequency:    5.8855766001
  - # 16
    frequency:    5.8855766001
  - # 17
    frequency:    5.9255116523
  - # 18
    frequency:    5.9255116523
  - # 19
    frequency:    7.1880505549
  - # 20
    frequency:    7.1880505549
  - # 21
    frequency:    7.2326288447
  - # 22
    frequency:    7.2326288447
  - # 23
    frequency:    7.8711677011
  - # 24
    frequency:    7.8741904253
  - # 25
    frequency:    7.9263099748
  - # 26
    frequency:    7.9291760840
  - # 27
    frequency:    7.9472393193
  - # 28
    frequency:    7.9810331755
  - # 29
    frequency:    8.9885835265
  - # 30
    frequency:    9.0561987779
  - # 31
    frequency:    9.6223535691
  - # 32
    frequency:    9.6223535691
  - # 33
    frequency:    9.6929198218
  - # 34
    frequency:    9.6929198218
  - # 35
    frequency:   10.1902516007
  - # 36
    frequency:   10.1902516007
  - # 37
    frequency:   10.2561147951
  - # 38
    frequency:   10.2561147951
  - # 39
    frequency:   10.4764623472
  - # 40
    frequency:   10.5877316450
  - # 41
    frequency:   10.6021952146
  - # 42
    frequency:   10.6021952146
  - # 43
    frequency:   10.6744594903
  - # 44
    frequency:   10.6766783314
  - # 45
    frequency:   10.7003542688
  - # 46
    frequency:   10.7003542688
  - # 47
    frequency:   10.7008401133
  - # 48
    frequency:   10.7035500881
  - # 49
    frequency:   10.8948270412
  - # 50
    frequency:   10.9497937855
  - # 51
    frequency:   11.1163544323
  - # 52
    frequency:   11.1563285487
  - # 53
    frequency:   11.3600753036
  - # 54
    frequency:   11.4980185490
  - # 55
    frequency:   11.7381599748
  - # 56
    frequency:   11.7381599748
  - # 57
    frequency:   11.7757228540
  - # 58
    frequency:   11.7757228540
  - # 59
    frequency:   11.9568632950
  - # 60
    frequency:   11.9568632950
  - # 61
    frequency:   12.0011782124
  - # 62
    frequency:   12.0011782124
  - # 63
    frequency:   12.3228725773
  - # 64
    frequency:   12.3669360719
  - # 65
    frequency:   12.4574225367
  - # 66
    frequency:   12.4574225367
  - # 67
    frequency:   12.5199076230
  - # 68
    frequency:   12.5199076230
  - # 69
    frequency:   12.5412870269
  - # 70
    frequency:   12.5862652331
  - # 71
    frequency:   13.6122887953
  - # 72
    frequency:   13.6885382373

- q-position: [    0.0231214,    0.0000000,    0.0000000 ]
  band:
  - # 1
    frequency:   -0.0403096833
  - # 2
    frequency:    0.1646425220
  - # 3
    frequency:    0.3017190750
  - # 4
    frequency:    0.6581133826
  - # 5
    frequency:    0.7058775183
  - # 6
    frequency:    1.1256240717
  - # 7
    frequency:    4.5463608321
  - # 8
    frequency:    4.5482357864
  - # 9
    frequency:    4.5482357864
  - # 10
    frequency:    4.6080379718
  - # 11
    frequency:    4.6118480236
  - # 12
    frequency:    4.6118480236
  - # 13
    frequency:    5.1049340262
  - # 14
    frequency:    5.1528121963
  - # 15
    frequency:    5.8808617556
  - # 16
    frequency:    5.8808617556
  - # 17
    frequency:    5.9207263277
  - # 18
    frequency:    5.9207263277
  - # 19
    frequency:    7.1916615203
  - # 20
    frequency:    7.1916615203
  - # 21
    frequency:    7.2360567793
  - # 22
    frequency:    7.2360567793
  - # 23
    frequency:    7.8718574959
  - # 24
    frequency:    7.8772268070
  - # 25
    frequency:    7.9270104481
  - # 26
    frequency:    7.9321016092
  - # 27
    frequency:    7.9456449972
  - # 28
    frequency:    7.9795266514
  - # 29
    frequency:    8.9879773862
  - # 30
    frequency:    9.0555878429
  - # 31
    frequency:    9.6210553562
  - # 32
    frequency:    9.6210553562
  - # 33
    frequency:    9.6915106821
  - # 34
    frequency:    9.6915106821
  - # 35
    frequency:   10.1913240624
  - # 36
    frequency:   10.1913240624
  - # 37
    frequency:   10.2571321641
  - # 38
    frequency:   10.2571321641
  - # 39
    frequency:   10.4770261564
  - # 40
    frequency:   10.5883185701
  - # 41
    frequency:   10.6016841849
  - # 42
    frequency:   10.6016841849
  - # 43
    frequency:   10.6730063143
  - # 44
    frequency:   10.6769413988
  - # 45
    frequency:   10.6990206554
  - # 46
    frequency:   10.6998312720
  - # 47
    frequency:   10.6998312720
  - # 48
    frequency:   10.7038207692
  - # 49
    frequency:   10.8930391212
  - # 50
    frequency:   10.9482730015
  - # 51
    frequency:   11.1161096998
  - # 52
    frequency:   11.1560761854
  - # 53
    frequency:   11.3624789631
  - # 54
    frequency:   11.4999965451
  - # 55
    frequency:   11.7371703869
  - # 56
    frequency:   11.7371703869
  - # 57
    frequency:   11.7747335674
  - # 58
    frequency:   11.7747335674
  - # 59
    frequency:   11.9579523694
  - # 60
    frequency:   11.9579523694
  - # 61
    frequency:   12.0023024720
  - # 62
    frequency:   12.0023024720
  - # 63
    frequency:   12.3227692034
  - # 64
    frequency:   12.3668455688
  - # 65
    frequency:   12.4577187160
  - # 66
    frequency:   12.4577187160
  - # 67
    frequency:   12.5201688251
  - # 68
    frequency:   12.5201688251
  - # 69
    frequency:   12.5413473332
  - # 70
    frequency:   12.5866374731
  - # 71
    frequency:   13.6114666022
  - # 72
    frequency:   13.6876996432

- q-position: [    0.0289017,    0.0000000,    0.0000000 ]
  band:
  - # 1
    frequency:   -0.0479246207
  - # 2
    frequency:    0.2057781702
  - # 3
    frequency:    0.3770613880
  - # 4
    frequency:    0.6696739608
  - # 5
    frequency:    0.7416560188
  - # 6
    frequency:    1.1246134870
  - # 7
    frequency:    4.5446610717
  - # 8
    frequency:    4.5497863961
  - # 9
    frequency:    4.5497863961
  - # 10
    frequency:    4.6063476622
  - # 11
    frequency:    4.6133560810
  - # 12
    frequency:    4.6133560810
  - # 13
    frequency:    5.1007983344
  - # 14
    frequency:    5.1487517417
  - # 15
    frequency:    5.8748449492
  - # 16
    frequency:    5.8748449492
  - # 17
    frequency:    5.9146238109
  - # 18
    frequency:    5.9146238109
  - # 19
    frequency:    7.1962561555
  - # 20
    frequency:    7.1962561555
  - # 21
    frequency:    7.2404214497
  - # 22
    frequency:    7.2404214497
  - # 23
    frequency:    7.8727438993
  - # 24
    frequency:    7.8811248655
  - # 25
    frequency:    7.9279105664
  - # 26
    frequency:    7.9358574930
  - # 27
    frequency:    7.9435937277
  - # 28
    frequency:    7.9775870679
  - # 29
    frequency:    8.9871983468
  - # 30
    frequency:    9.0548026386
  - # 31
    frequency:    9.6193876598
  - # 32
    frequency:    9.6193876598
  - # 33
    frequency:    9.6897016911
  - # 34
    frequency:    9.6897016911
  - # 35
    frequency:   10.1927018424
  - # 36
    frequency:   10.1927018424
  - # 37
    frequency:   10.2584390605
  - # 38
    frequency:   10.2584390605
  - # 39
    frequency:   10.4777445903
  - # 40
    frequency:   10.5890651030
  - # 41
    frequency:   10.6010311128
  - # 42
    frequency:   10.6010311128
  - # 43
    frequency:   10.6711502061
  - # 44
    frequency:   10.6772794643
  - # 45
    frequency:   10.6967037005
  - # 46
    frequency:   10.6991634786
  - # 47
    frequency:   10.6991634786
  - # 48
    frequency:   10.7041686189
  - # 49
    frequency:   10.8907490366
  - # 50
    frequency:   10.9463209871
  - # 51
    frequency:   11.1157951664
  - # 52
    frequency:   11.1557518454
  - # 53
    frequency:   11.3655468521
  - # 54
    frequency:   11.5025270610
  - # 55
    frequency:   11.7359001349
  - # 56
    frequency:   11.7359001349
  - # 57
    frequency:   11.7734642810
  - # 58
    frequency:   11.7734642810
  - # 59
    frequency:   11.9593476189
  - # 60
    frequency:   11.9593476189
  - # 61
    frequency:   12.0037420837
  - # 62
    frequency:   12.0037420837
  - # 63
    frequency:   12.3226402900
  - # 64
    frequency:   12.3667319774
  - # 65
    frequency:   12.4580976572
  - # 66
    frequency:   12.4580976572
  - # 67
    frequency:   12.5205030041
  - # 68
    frequency:   12.5205030041
  - # 69
    frequency:   12.5414249964
  - # 70
    frequency:   12.5871102156
  - # 71
    frequency:   13.6104097693
  - # 72
    frequency:   13.6866216992

- q-position: [    0.0346821,    0.0000000,    0.0000000 ]
  band:
  - # 1
    frequency:   -0.0542429778
  - # 2
    frequency:    0.2468971644
  - # 3
    frequency:    0.4523383633
  - # 4
    frequency:    0.6835306806
  - # 5
    frequency:    0.7830723453
  - # 6
    frequency:    1.1234238654
  - # 7
    frequency:    4.5425838943
  - # 8
    frequency:    4.5516781534
  - # 9
    frequency:    4.5516781534
  - # 10
    frequency:    4.6042820503
  - # 11
    frequency:    4.6151959232
  - # 12
    frequency:    4.6151959232
  - # 13
    frequency:    5.0957506332
  - # 14
    frequency:    5.1437943901
  - # 15
    frequency:    5.8675585085
  - # 16
    frequency:    5.8675585085
  - # 17
    frequency:    5.9072397642
  - # 18
    frequency:    5.9072397642
  - # 19
    frequency:    7.2018003049
  - # 20
    frequency:    7.2018003049
  - # 21
    frequency:    7.2456923751
  - # 22
    frequency:    7.2456923751
  - # 23
    frequency:    7.8738265553
  - # 24
    frequency:    7.8858802355
  - # 25
    frequency:    7.9290099624
  - # 26
    frequency:    7.9404396326
  - # 27
    frequency:    7.9410844352
  - # 28
    frequency:    7.9752124714
  - # 29
    frequency:    8.9862466210
  - # 30
    frequency:    9.0538433777
  - # 31
    frequency:    9.6173515726
  - # 32
    frequency:    9.6173515726
  - # 33
    frequency:    9.6874949226
  - # 34
    frequency:    9.6874949226
  - # 35
    frequency:   10.1943841149
  - # 36
    frequency:   10.1943841149
  - # 37
    frequency:   10.2600346215
  - # 38
    frequency:   10.2600346215
  - # 39
    frequency:   10.4786128197
  - # 40
    frequency:   10.5899652077
  - # 41
    frequency:   10.6002389203
  - # 42
    frequency:   10.6002389203
  - # 43
    frequency:   10.6689000576
  - # 44
    frequency:   10.6776924048
  - # 45
    frequency:   10.6939051926
  - # 46
    frequency:   10.6983542908
  - # 47
    frequency:   10.6983542908
  - # 48
    frequency:   10.7045935108
  - # 49
    frequency:   10.8879631569
  - # 50
    frequency:   10.9439402684
  - # 51
    frequency:   11.1154109239
  - # 52
    frequency:   11.1553556239
  - # 53
    frequency:   11.3692628931
  - # 54
    frequency:   11.5056009309
  - # 55
    frequency:   11.7343507573
  - # 56
    frequency:   11.7343507573
  - # 57
    frequency:   11.7719169380
  - # 58
    frequency:   11.7719169380
  - # 59
    frequency:   11.9610453449
  - # 60
    frequency:   11.9610453449
  - # 61
    frequency:   12.0054927362
  - # 62
    frequency:   12.0054927362
  - # 63
    frequency:   12.3224888264
  - # 64
    frequency:   12.3665973869
  - # 65
    frequency:   12.4585579881
  - # 66
    frequency:   12.4585579881
  - # 67
    frequency:   12.5209089391
  - # 68
    frequency:   12.5209089391
  - # 69
    frequency:   12.5415199889
  - # 70
    frequency:   12.5876792390
  - # 71
    frequency:   13.6091185011
  - # 72
    frequency:   13.6853045918

- q-position: [    0.0404624,    0.0000000,    0.0000000 ]
  band:
  - # 1
    frequency:   -0.0591815036
  - # 2
    frequency:    0.2879961767
  - # 3
    frequency:    0.5275276308
  - # 4
    frequency:    0.6995427719
  - # 5
    frequency:    0.8292553435
  - # 6
    frequency:    1.1220872649
  - # 7
    frequency:    4.5401294841
  - # 8
    frequency:    4.5539090028
  - # 9
    frequency:    4.5539090028
  - # 10
    frequency:    4.6018413293
  - # 11
    frequency:    4.6173655506
  - # 12
    frequency:    4.6173655506
  - # 13
    frequency:    5.0897950927
  - # 14
    frequency:    5.1379433787
  - # 15
    frequency:    5.8590403626
  - # 16
    frequency:    5.8590403626
  - # 17
    frequency:    5.8986158482
  - # 18
    frequency:    5.8986158482
  - # 19
    frequency:    7.2082541496
  - # 20
    frequency:    7.2082541496
  - # 21
    frequency:    7.2518338827
  - # 22
    frequency:    7.2518338827
  - # 23
    frequency:    7.8751050288
  - # 24
    frequency:    7.8914876159
  - # 25
    frequency:    7.9303081878
  - # 26
    frequency:    7.9381157996
  - # 27
    frequency:    7.9458430432
  - # 28
    frequency:    7.9724004902
  - # 29
    frequency:    8.9851224689
  - # 30
    frequency:    9.0527103201
  - # 31
    frequency:    9.6149484486
  - # 32
    frequency:    9.6149484486
  - # 33
    frequency:    9.6848929153
  - # 34
    frequency:    9.6848929153
  - # 35
    frequency:   10.1963698696
  - # 36
    frequency:   10.1963698696
  - # 37
    frequency:   10.2619177920
  - # 38
    frequency:   10.2619177920
  - # 39
    frequency:   10.4796249632
  - # 40
    frequency:   10.5910115385
  - # 41
    frequency:   10.5993111207
  - # 42
    frequency:   10.5993111207
  - # 43
    frequency:   10.6662664156
  - # 44
    frequency:   10.6781800702
  - # 45
    frequency:   10.6906437750
  - # 46
    frequency:   10.6974077891
  - # 47
    frequency:   10.6974077891
  - # 48
    frequency:   10.7050952901
  - # 49
    frequency:   10.8846891282
  - # 50
    frequency:   10.9411339992
  - # 51
    frequency:   11.1149570847
  - # 52
    frequency:   11.1548876375
  - # 53
    frequency:   11.3736082839
  - # 54
    frequency:   11.5092072715
  - # 55
    frequency:   11.7325241146
  - # 56
    frequency:   11.7325241146
  - # 57
    frequency:   11.7700938631
  - # 58
    frequency:   11.7700938631
  - # 59
    frequency:   11.9630410745
  - # 60
    frequency:   11.9630410745
  - # 61
    frequency:   12.0075492521
  - # 62
    frequency:   12.0075492521
  - # 63
    frequency:   12.3223184584
  - # 64
    frequency:   12.3664443633
  - # 65
    frequency:   12.4590980574
  - # 66
    frequency:   12.4590980574
  - # 67
    frequency:   12.5213851581
  - # 68
    frequency:   12.5213851581
  - # 69
    frequency:   12.5416321547
  - # 70
    frequency:   12.5883395562
  - # 71
    frequency:   13.6075930481
  - # 72
    frequency:   13.6837485492

- q-position: [    0.0462428,    0.0000000,    0.0000000 ]
  band:
  - # 1
    frequency:   -0.0626356194
  - # 2
    frequency:    0.3290718810
  - # 3
    frequency:    0.6025975837
  - # 4
    frequency:    0.7175609684
  - # 5
    frequency:    0.8794331660
  - # 6
    frequency:    1.1206482441
  - # 7
    frequency:    4.5372980591
  - # 8
    frequency:    4.5564765190
  - # 9
    frequency:    4.5564765190
  - # 10
    frequency:    4.5990257272
  - # 11
    frequency:    4.6198626036
  - # 12
    frequency:    4.6198626036
  - # 13
    frequency:    5.0829365969
  - # 14
    frequency:    5.1312025168
  - # 15
    frequency:    5.8493332376
  - # 16
    frequency:    5.8493332376
  - # 17
    frequency:    5.8887987571
  - # 18
    frequency:    5.8887987571
  - # 19
    frequency:    7.2155731718
  - # 20
    frequency:    7.2155731718
  - # 21
    frequency:    7.2588059122
  - # 22
    frequency:    7.2588059122
  - # 23
    frequency:    7.8765788066
  - # 24
    frequency:    7.8979407885
  - # 25
    frequency:    7.9318047134
  - # 26
    frequency:    7.9346862531
  - # 27
    frequency:    7.9520618751
  - # 28
    frequency:    7.9691483435
  - # 29
    frequency:    8.9838261978
  - # 30
    frequency:    9.0514037728
  - # 31
    frequency:    9.6121799135
  - # 32
    frequency:    9.6121799135
  - # 33
    frequency:    9.6818986741
  - # 34
    frequency:    9.6818986741
  - # 35
    frequency:   10.1986579106
  - # 36
    frequency:   10.1986579106
  - # 37
    frequency:   10.2640873233
  - # 38
    frequency:   10.2640873233
  - # 39
    frequency:   10.4807741000
  - # 40
    frequency:   10.5921954571
  - # 41
    frequency:   10.5982517870
  - # 42
    frequency:   10.5982517870
  - # 43
    frequency:   10.6632613079
  - # 44
    frequency:   10.6787422831
  - # 45
    frequency:   10.6869403639
  - # 46
    frequency:   10.6963286884
  - # 47
    frequency:   10.6963286884
  - # 48
    frequency:   10.7056737746
  - # 49
    frequency:   10.8809358007
  - # 50
    frequency:   10.9379059926
  - # 51
    frequency:   11.1144337815
  - # 52
    frequency:   11.1543480235
  - # 53
    frequency:   11.3785619260
  - # 54
    frequency:   11.5133336520
  - # 55
    frequency:   11.7304223782
  - # 56
    frequency:   11.7304223782
  - # 57
    frequency:   11.7679977368
  - # 58
    frequency:   11.7679977368
  - # 59
    frequency:   11.9653295886
  - # 60
    frequency:   11.9653295886
  - # 61
    frequency:   12.0099056384
  - # 62
    frequency:   12.0099056384
  - # 63
    frequency:   12.3221334820
  - # 64
    frequency:   12.3662759554
  - # 65
    frequency:   12.4597159487
  - # 66
    frequency:   12.4597159487
  - # 67
    frequency:   12.5219299496
  - # 68
    frequency:   12.5219299496
  - # 69
    frequency:   12.5417611525
  - # 70
    frequency:   12.5890855006
  - # 71
    frequency:   13.6058337066
  - # 72
    frequency:   13.6819538415

- q-position: [    0.0520231,    0.0000000,    0.0000000 ]
  band:
  - # 1
    frequency:   -0.0644415469
  - # 2
    frequency:    0.3701209509
  - # 3
    frequency:    0.6774992914
  - # 4
    frequency:    0.7374326333
  - # 5
    frequency:    0.9329436485
  - # 6
    frequency:    1.1191718902
  - # 7
    frequency:    4.5340898706
  - # 8
    frequency:    4.5593779084
  - # 9
    frequency:    4.5593779084
  - # 10
    frequency:    4.5958355076
  - # 11
    frequency:    4.6226843640
  - # 12
    frequency:    4.6226843640
  - # 13
    frequency:    5.0751807232
  - # 14
    frequency:    5.1235761766
  - # 15
    frequency:    5.8384838164
  - # 16
    frequency:    5.8384838164
  - # 17
    frequency:    5.8778392255
  - # 18
    frequency:    5.8778392255
  - # 19
    frequency:    7.2237091491
  - # 20
    frequency:    7.2237091491
  - # 21
    frequency:    7.2665648555
  - # 22
    frequency:    7.2665648555
  - # 23
    frequency:    7.8782472971
  - # 24
    frequency:    7.9052326412
  - # 25
    frequency:    7.9307939782
  - # 26
    frequency:    7.9334989295
  - # 27
    frequency:    7.9590894332
  - # 28
    frequency:    7.9654528514
  - # 29
    frequency:    8.9823581621
  - # 30
    frequency:    9.0499240899
  - # 31
    frequency:    9.6090478769
  - # 32
    frequency:    9.6090478769
  - # 33
    frequency:    9.6785156728
  - # 34
    frequency:    9.6785156728
  - # 35
    frequency:   10.2012468562
  - # 36
    frequency:   10.2012468562
  - # 37
    frequency:   10.2665417732
  - # 38
    frequency:   10.2665417732
  - # 39
    frequency:   10.4820522844
  - # 40
    frequency:   10.5935070544
  - # 41
    frequency:   10.5970655141
  - # 42
    frequency:   10.5970655141
  - # 43
    frequency:   10.6598980566
  - # 44
    frequency:   10.6793788391
  - # 45
    frequency:   10.6828177071
  - # 46
    frequency:   10.6951222879
  - # 47
    frequency:   10.6951222879
  - # 48
    frequency:   10.7063287538
  - # 49
    frequency:   10.8767131508
  - # 50
    frequency:   10.9342607508
  - # 51
    frequency:   11.1138411674
  - # 52
    frequency:   11.1537369408
  - # 53
    frequency:   11.3841008688
  - # 54
    frequency:   11.5179662800
  - # 55
    frequency:   11.7280480171
  - # 56
    frequency:   11.7280480171
  - # 57
    frequency:   11.7656315670
  - # 58
    frequency:   11.7656315670
  - # 59
    frequency:   11.9679049551
  - # 60
    frequency:   11.9679049551
  - # 61
    frequency:   12.0125551404
  - # 62
    frequency:   12.0125551404
  - # 63
    frequency:   12.3219388372
  - # 64
    frequency:   12.3660957010
  - # 65
    frequency:   12.4604094976
  - # 66
    frequency:   12.4604094976
  - # 67
    frequency:   12.5225413756
  - # 68
    frequency:   12.5225413756
  - # 69
    frequency:   12.5419064001
  - # 70
    frequency:   12.5899108153
  - # 71
    frequency:   13.6038408189
  - # 72
    frequency:   13.6799207809

- q-position: [    0.0578035,    0.0000000,    0.0000000 ]
  band:
  - # 1
    frequency:   -0.0643302195
  - # 2
    frequency:    0.4111400639
  - # 3
    frequency:    0.7521484827
  - # 4
    frequency:    0.7590060404
  - # 5
    frequency:    0.9892297603
  - # 6
    frequency:    1.1177618874
  - # 7
    frequency:    4.5305052031
  - # 8
    frequency:    4.5626100113
  - # 9