nqpoint: 189    
npath: 9      
segment_nqpoint:
- 21
- 21
- 21
- 21
- 21
- 21
- 21
- 21
- 21
labels:
- [ '$\Gamma$', '$\mathrm{M}$' ]
- [ '$\mathrm{M}$', '$\mathrm{K}$' ]
- [ '$\mathrm{K}$', '$\Gamma$' ]
- [ '$\Gamma$', '$\mathrm{A}$' ]
- [ '$\mathrm{A}$', '$\mathrm{L}$' ]
- [ '$\mathrm{L}$', '$\mathrm{H}$' ]
- [ '$\mathrm{H}$', '$\mathrm{A}$' ]
- [ '$\mathrm{L}$', '$\mathrm{M}$' ]
- [ '$\mathrm{H}$', '$\mathrm{K}$' ]
reciprocal_lattice:
- [   0.18367477,   0.00000000,   0.00000000 ] # a*
- [   0.00000000,   0.15906703,   0.00000000 ] # b*
- [   0.00000000,   0.00000000,   0.00937842 ] # c*
natom: 24     
lattice:
- [     5.444405999999999,     0.000000000000000,     0.000000000000000 ] # a
- [     0.000000000000000,     6.286658000000000,     0.000000000000000 ] # b
- [     0.000000000000000,     0.000000000000000,   106.627769999999998 ] # c
points:
- symbol: S  # 1
  coordinates: [  0.997613229824043,  0.997070184183760,  0.499613583301485 ]
  mass: 32.066000
- symbol: Mo # 2
  coordinates: [  0.164279908316531,  0.247070184179005,  0.484237929547094 ]
  mass: 95.940000
- symbol: S  # 3
  coordinates: [  0.997613229903392,  0.997070184183123,  0.468859590403794 ]
  mass: 32.066000
- symbol: S  # 4
  coordinates: [  0.497613229833429,  0.247070184204139,  0.499613583301776 ]
  mass: 32.066000
- symbol: Mo # 5
  coordinates: [  0.664279908312257,  0.997070184189849,  0.484237929546597 ]
  mass: 95.940000
- symbol: S  # 6
  coordinates: [  0.497613229919587,  0.247070184200766,  0.468859590403418 ]
  mass: 32.066000
- symbol: S  # 7
  coordinates: [  0.997613229843390,  0.497070184182209,  0.499613583301877 ]
  mass: 32.066000
- symbol: Mo # 8
  coordinates: [  0.164279908315478,  0.747070184199331,  0.484237929547050 ]
  mass: 95.940000
- symbol: S  # 9
  coordinates: [  0.997613229929820,  0.497070184182374,  0.468859590403092 ]
  mass: 32.066000
- symbol: S  # 10
  coordinates: [  0.497613229831280,  0.747070184190184,  0.499613583301733 ]
  mass: 32.066000
- symbol: Mo # 11
  coordinates: [  0.664279908321747,  0.497070184192108,  0.484237929546990 ]
  mass: 95.940000
- symbol: S  # 12
  coordinates: [  0.497613229916651,  0.747070184194031,  0.468859590403496 ]
  mass: 32.066000
- symbol: S  # 13
  coordinates: [  0.164279913243209,  0.247070184200767,  0.558161794363366 ]
  mass: 32.066000
- symbol: Mo # 14
  coordinates: [  0.997613234852263,  0.997070184189850,  0.542783455220369 ]
  mass: 95.940000
- symbol: S  # 15
  coordinates: [  0.164279913331703,  0.247070184204140,  0.527407801465041 ]
  mass: 32.066000
- symbol: S  # 16
  coordinates: [  0.664279913261466,  0.997070184183124,  0.558161794363100 ]
  mass: 32.066000
- symbol: Mo # 17
  coordinates: [  0.497613234846604,  0.247070184179005,  0.542783455219617 ]
  mass: 95.940000
- symbol: S  # 18
  coordinates: [  0.664279913338479,  0.997070184183761,  0.527407801465375 ]
  mass: 32.066000
- symbol: S  # 19
  coordinates: [  0.164279913246145,  0.747070184194031,  0.558161794363288 ]
  mass: 32.066000
- symbol: Mo # 20
  coordinates: [  0.997613234842773,  0.497070184192109,  0.542783455219976 ]
  mass: 95.940000
- symbol: S  # 21
  coordinates: [  0.164279913333852,  0.747070184190185,  0.527407801465085 ]
  mass: 32.066000
- symbol: S  # 22
  coordinates: [  0.664279913235038,  0.497070184182375,  0.558161794363802 ]
  mass: 32.066000
- symbol: Mo # 23
  coordinates: [  0.497613234847657,  0.747070184199332,  0.542783455219661 ]
  mass: 95.940000
- symbol: S  # 24
  coordinates: [  0.664279913319132,  0.497070184182210,  0.527407801464983 ]
  mass: 32.066000
supercell_matrix:
- [    9,    0,    0 ]
- [    0,    9,    0 ]
- [    0,    0,    9 ]

phonon:
- q-position: [    0.0000000,    0.0000000,    0.0000000 ]
  distance:    0.0000000
  band:
  - # 1
    frequency:   -0.0000430347
  - # 2
    frequency:   -0.0000400384
  - # 3
    frequency:   -0.0000228948
  - # 4
    frequency:    0.6370289997
  - # 5
    frequency:    0.6370291038
  - # 6
    frequency:    1.1274983421
  - # 7
    frequency:    4.5454729004
  - # 8
    frequency:    4.5454729004
  - # 9
    frequency:    4.5493831875
  - # 10
    frequency:    4.6091609565
  - # 11
    frequency:    4.6091609565
  - # 12
    frequency:    4.6110435521
  - # 13
    frequency:    5.1122992251
  - # 14
    frequency:    5.1600406737
  - # 15
    frequency:    5.8916846421
  - # 16
    frequency:    5.8916846421
  - # 17
    frequency:    5.9317154405
  - # 18
    frequency:    5.9317154405
  - # 19
    frequency:    7.1833586660
  - # 20
    frequency:    7.1833586660
  - # 21
    frequency:    7.2281778640
  - # 22
    frequency:    7.2281778640
  - # 23
    frequency:    7.8702803464
  - # 24
    frequency:    7.8702806263
  - # 25
    frequency:    7.9254088758
  - # 26
    frequency:    7.9254091723
  - # 27
    frequency:    7.9492877386
  - # 28
    frequency:    7.9829675020
  - # 29
    frequency:    8.9893631336
  - # 30
    frequency:    9.0569845494
  - # 31
    frequency:    9.6240241241
  - # 32
    frequency:    9.6240241241
  - # 33
    frequency:    9.6947343304
  - # 34
    frequency:    9.6947343304
  - # 35
    frequency:   10.1888716227
  - # 36
    frequency:   10.1888716227
  - # 37
    frequency:   10.2548056004
  - # 38
    frequency:   10.2548056004
  - # 39
    frequency:   10.4757309745
  - # 40
    frequency:   10.5869689245
  - # 41
    frequency:   10.6028562516
  - # 42
    frequency:   10.6028562516
  - # 43
    frequency:   10.6763399377
  - # 44
    frequency:   10.6763403091
  - # 45
    frequency:   10.7010313682
  - # 46
    frequency:   10.7010313682
  - # 47
    frequency:   10.7032019006
  - # 48
    frequency:   10.7032022806
  - # 49
    frequency:   10.8971345482
  - # 50
    frequency:   10.9517523158
  - # 51
    frequency:   11.1166692109
  - # 52
    frequency:   11.1566531429
  - # 53
    frequency:   11.3569618357
  - # 54
    frequency:   11.4954626017
  - # 55
    frequency:   11.7394343885
  - # 56
    frequency:   11.7394343885
  - # 57
    frequency:   11.7769974772
  - # 58
    frequency:   11.7769974772
  - # 59
    frequency:   11.9554580416
  - # 60
    frequency:   11.9554580416
  - # 61
    frequency:   11.9997268167
  - # 62
    frequency:   11.9997268167
  - # 63
    frequency:   12.3230094865
  - # 64
    frequency:   12.3670551953
  - # 65
    frequency:   12.4570398594
  - # 66
    frequency:   12.4570398594
  - # 67
    frequency:   12.5195701281
  - # 68
    frequency:   12.5195701281
  - # 69
    frequency:   12.5412096953
  - # 70
    frequency:   12.5857806808
  - # 71
    frequency:   13.6133461731
  - # 72
    frequency:   13.6896166779

- q-position: [    0.0250000,    0.0000000,    0.0000000 ]
  distance:    0.0045919
  band:
  - # 1
    frequency:   -0.0429213572
  - # 2
    frequency:    0.1780132305
  - # 3
    frequency:    0.3262113661
  - # 4
    frequency:    0.6616106094
  - # 5
    frequency:    0.7168305731
  - # 6
    frequency:    1.1253168543
  - # 7
    frequency:    4.5458498178
  - # 8
    frequency:    4.5487022043
  - # 9
    frequency:    4.5487022043
  - # 10
    frequency:    4.6075297975
  - # 11
    frequency:    4.6123016420
  - # 12
    frequency:    4.6123016420
  - # 13
    frequency:    5.1036901880
  - # 14
    frequency:    5.1515911016
  - # 15
    frequency:    5.8790476583
  - # 16
    frequency:    5.8790476583
  - # 17
    frequency:    5.9188858934
  - # 18
    frequency:    5.9188858934
  - # 19
    frequency:    7.1930484101
  - # 20
    frequency:    7.1930484101
  - # 21
    frequency:    7.2373739120
  - # 22
    frequency:    7.2373739120
  - # 23
    frequency:    7.8721240271
  - # 24
    frequency:    7.8783993531
  - # 25
    frequency:    7.9272811041
  - # 26
    frequency:    7.9332313722
  - # 27
    frequency:    7.9450285032
  - # 28
    frequency:    7.9789438741
  - # 29
    frequency:    8.9877431539
  - # 30
    frequency:    9.0553517573
  - # 31
    frequency:    9.6205538348
  - # 32
    frequency:    9.6205538348
  - # 33
    frequency:    9.6909665277
  - # 34
    frequency:    9.6909665277
  - # 35
    frequency:   10.1917383876
  - # 36
    frequency:   10.1917383876
  - # 37
    frequency:   10.2575251858
  - # 38
    frequency:   10.2575251858
  - # 39
    frequency:   10.4772428995
  - # 40
    frequency:   10.5885439520
  - # 41
    frequency:   10.6014873875
  - # 42
    frequency:   10.6014873875
  - # 43
    frequency:   10.6724468803
  - # 44
    frequency:   10.6770430492
  - # 45
    frequency:   10.6983215010
  - # 46
    frequency:   10.6996299709
  - # 47
    frequency:   10.6996299709
  - # 48
    frequency:   10.7039253615
  - # 49
    frequency:   10.8923496430
  - # 50
    frequency:   10.9476857874
  - # 51
    frequency:   11.1160151287
  - # 52
    frequency:   11.1559786657
  - # 53
    frequency:   11.3634038885
  - # 54
    frequency:   11.5007587657
  - # 55
    frequency:   11.7367882724
  - # 56
    frequency:   11.7367882724
  - # 57
    frequency:   11.7743516757
  - # 58
    frequency:   11.7743516757
  - # 59
    frequency:   11.9583724051
  - # 60
    frequency:   11.9583724051
  - # 61
    frequency:   12.0027359464
  - # 62
    frequency:   12.0027359464
  - # 63
    frequency:   12.3227299765
  - # 64
    frequency:   12.3668110925
  - # 65
    frequency:   12.4578328546
  - # 66
    frequency:   12.4578328546
  - # 67
    frequency:   12.5202694826
  - # 68
    frequency:   12.5202694826
  - # 69
    frequency:   12.5413706693
  - # 70
    frequency:   12.5867802786
  - # 71
    frequency:   13.6111488596
  - # 72
    frequency:   13.6873755569

- q-position: [    0.0500000,    0.0000000,    0.0000000 ]
  distance:    0.0091837
  band:
  - # 1
    frequency:   -0.0640109077
  - # 2
    frequency:    0.3557570138
  - # 3
    frequency:    0.6513070374
  - # 4
    frequency:    0.7302762715
  - # 5
    frequency:    0.9138728446
  - # 6
    frequency:    1.1196875107
  - # 7
    frequency:    4.5352555763
  - # 8
    frequency:    4.5583246340
  - # 9
    frequency:    4.5583246340
  - # 10
    frequency:    4.5969946793
  - # 11
    frequency:    4.6216599972
  - # 12
    frequency:    4.6216599972
  - # 13
    frequency:    5.0779969788
  - # 14
    frequency:    5.1263458222
  - # 15
    frequency:    5.8424079911
  - # 16
    frequency:    5.8424079911
  - # 17
    frequency:    5.8818017027
  - # 18
    frequency:    5.8818017027
  - # 19
    frequency:    7.2207717688
  - # 20
    frequency:    7.2207717688
  - # 21
    frequency:    7.2637625636
  - # 22
    frequency:    7.2637625636
  - # 23
    frequency:    7.8776412170
  - # 24
    frequency:    7.9025855741
  - # 25
    frequency:    7.9322090339
  - # 26
    frequency:    7.9328835080
  - # 27
    frequency:    7.9565382484
  - # 28
    frequency:    7.9667969193
  - # 29
    frequency:    8.9828914887
  - # 30
    frequency:    9.0504616490
  - # 31
    frequency:    9.6101853064
  - # 32
    frequency:    9.6101853064
  - # 33
    frequency:    9.6797437079
  - # 34
    frequency:    9.6797437079
  - # 35
    frequency:   10.2003065916
  - # 36
    frequency:   10.2003065916
  - # 37
    frequency:   10.2656504045
  - # 38
    frequency:   10.2656504045
  - # 39
    frequency:   10.4815907797
  - # 40
    frequency:   10.5930341438
  - # 41
    frequency:   10.5974948410
  - # 42
    frequency:   10.5974948410
  - # 43
    frequency:   10.6611150522
  - # 44
    frequency:   10.6791476019
  - # 45
    frequency:   10.6843068405
  - # 46
    frequency:   10.6955586543
  - # 47
    frequency:   10.6955586543
  - # 48
    frequency:   10.7060908241
  - # 49
    frequency:   10.8782437952
  - # 50
    frequency:   10.9355837349
  - # 51
    frequency:   11.1140564560
  - # 52
    frequency:   11.1539589385
  - # 53
    frequency:   11.3820971599
  - # 54
    frequency:   11.5162881880
  - # 55
    frequency:   11.7289098882
  - # 56
    frequency:   11.7289098882
  - # 57
    frequency:   11.7664902431
  - # 58
    frequency:   11.7664902431
  - # 59
    frequency:   11.9669713469
  - # 60
    frequency:   11.9669713469
  - # 61
    frequency:   12.0115949252
  - # 62
    frequency:   12.0115949252
  - # 63
    frequency:   12.3220077271
  - # 64
    frequency:   12.3661598958
  - # 65
    frequency:   12.4601582946
  - # 66
    frequency:   12.4601582946
  - # 67
    frequency:   12.5223199270
  - # 68
    frequency:   12.5223199270
  - # 69
    frequency:   12.5418537630
  - # 70
    frequency:   12.5896133400
  - # 71
    frequency:   13.6045648721
  - # 72
    frequency:   13.6806594435

- q-position: [    0.0750000,    0.0000000,    0.0000000 ]
  distance:    0.0137756
  band:
  - # 1
    frequency:   -0.0457481216
  - # 2
    frequency:    0.5329622433
  - # 3
    frequency:    0.8318366454
  - # 4
    frequency:    0.9695593963
  - # 5
    frequency:    1.1173516037
  - # 6
    frequency:    1.1689454977
  - # 7
    frequency:    4.5176180472
  - # 8
    frequency:    4.5741446704
  - # 9
    frequency:    4.5741446704
  - # 10
    frequency:    4.5794566223
  - # 11
    frequency:    4.6370457850
  - # 12
    frequency:    4.6370457850
  - # 13
    frequency:    5.0356103157
  - # 14
    frequency:    5.0846108848
  - # 15
    frequency:    5.7850727217
  - # 16
    frequency:    5.7850727217
  - # 17
    frequency:    5.8240645839
  - # 18
    frequency:    5.8240645839
  - # 19
    frequency:    7.2631028301
  - # 20
    frequency:    7.2631028301
  - # 21
    frequency:    7.3042518701
  - # 22
    frequency:    7.3042518701
  - # 23
    frequency:    7.8867905209
  - # 24
    frequency:    7.9107022935
  - # 25
    frequency:    7.9421734201
  - # 26
    frequency:    7.9423412038
  - # 27
    frequency:    7.9463038749
  - # 28
    frequency:    7.9948609564
  - # 29
    frequency:    8.9748329415
  - # 30
    frequency:    9.0423390115
  - # 31
    frequency:    9.5930519069
  - # 32
    frequency:    9.5930519069
  - # 33
    frequency:    9.6613088185
  - # 34
    frequency:    9.6613088185
  - # 35
    frequency:   10.2144795585
  - # 36
    frequency:   10.2144795585
  - # 37
    frequency:   10.2790803150
  - # 38
    frequency:   10.2790803150
  - # 39
    frequency:   10.4882184391
  - # 40
    frequency:   10.5912010587
  - # 41
    frequency:   10.5912010587
  - # 42
    frequency:   10.5997456862
  - # 43
    frequency:   10.6432838295
  - # 44
    frequency:   10.6627722404
  - # 45
    frequency:   10.6826392906
  - # 46
    frequency:   10.6891894256
  - # 47
    frequency:   10.6891894256
  - # 48
    frequency:   10.7096835701
  - # 49
    frequency:   10.8555183724
  - # 50
    frequency:   10.9157590098
  - # 51
    frequency:   11.1108039049
  - # 52
    frequency:   11.1506050641
  - # 53
    frequency:   11.4114135355
  - # 54
    frequency:   11.5410789274
  - # 55
    frequency:   11.7159722921
  - # 56
    frequency:   11.7159722921
  - # 57
    frequency:   11.7536247403
  - # 58
    frequency:   11.7536247403
  - # 59
    frequency:   11.9808392136
  - # 60
    frequency:   11.9808392136
  - # 61
    frequency:   12.0258292255
  - # 62
    frequency:   12.0258292255
  - # 63
    frequency:   12.3211884201
  - # 64
    frequency:   12.3653488322
  - # 65
    frequency:   12.4638643318
  - # 66
    frequency:   12.4638643318
  - # 67
    frequency:   12.5255855566
  - # 68
    frequency:   12.5255855566
  - # 69
    frequency:   12.5426221821
  - # 70
    frequency:   12.5938375255
  - # 71
    frequency:   13.5936181701
  - # 72
    frequency:   13.6694901798

- q-position: [    0.1000000,    0.0000000,    0.0000000 ]
  distance:    0.0183675
  band:
  - # 1
    frequency:    0.0958259442
  - # 2
    frequency:    0.7093605326
  - # 3
    frequency:    0.9553611372
  - # 4
    frequency:    1.0909329560
  - # 5
    frequency:    1.3104487731
  - # 6
    frequency:    1.4506937190
  - # 7
    frequency:    4.4929664789
  - # 8
    frequency:    4.5549462956
  - # 9
    frequency:    4.5958394765
  - # 10
    frequency:    4.5958394765
  - # 11
    frequency:    4.6581447774
  - # 12
    frequency:    4.6581447774
  - # 13
    frequency:    4.9771475329
  - # 14
    frequency:    5.0268818651
  - # 15
    frequency:    5.7112939854
  - # 16
    frequency:    5.7112939854
  - # 17
    frequency:    5.7501942134
  - # 18
    frequency:    5.7501942134
  - # 19
    frequency:    7.3158153522
  - # 20
    frequency:    7.3158153522
  - # 21
    frequency:    7.3549469502
  - # 22
    frequency:    7.3549469502
  - # 23
    frequency:    7.8802927759
  - # 24
    frequency:    7.8995034821
  - # 25
    frequency:    7.9171099856
  - # 26
    frequency:    7.9550803120
  - # 27
    frequency:    7.9968734171
  - # 28
    frequency:    8.0474508752
  - # 29
    frequency:    8.9636087925
  - # 30
    frequency:    9.0310251011
  - # 31
    frequency:    9.5693951620
  - # 32
    frequency:    9.5693951620
  - # 33
    frequency:    9.6360689651
  - # 34
    frequency:    9.6360689651
  - # 35
    frequency:   10.2340950764
  - # 36
    frequency:   10.2340950764
  - # 37
    frequency:   10.2976452638
  - # 38
    frequency:   10.2976452638
  - # 39
    frequency:   10.4962244118
  - # 40
    frequency:   10.5830848810
  - # 41
    frequency:   10.5830848810
  - # 42
    frequency:   10.6075562825
  - # 43
    frequency:   10.6202300918
  - # 44
    frequency:   10.6357483711
  - # 45
    frequency:   10.6810626264
  - # 46
    frequency:   10.6810626264
  - # 47
    frequency:   10.6874944073
  - # 48
    frequency:   10.7146792093
  - # 49
    frequency:   10.8252245756
  - # 50
    frequency:   10.8887747611
  - # 51
    frequency:   11.1062752932
  - # 52
    frequency:   11.1459355085
  - # 53
    frequency:   11.4493042498
  - # 54
    frequency:   11.5737948546
  - # 55
    frequency:   11.6982429598
  - # 56
    frequency:   11.6982429598
  - # 57
    frequency:   11.7360639554
  - # 58
    frequency:   11.7360639554
  - # 59
    frequency:   11.9993365661
  - # 60
    frequency:   11.9993365661
  - # 61
    frequency:   12.0447330431
  - # 62
    frequency:   12.0447330431
  - # 63
    frequency:   12.3208360001
  - # 64
    frequency:   12.3647985275
  - # 65
    frequency:   12.4687243194
  - # 66
    frequency:   12.4687243194
  - # 67
    frequency:   12.5298610544
  - # 68
    frequency:   12.5298610544
  - # 69
    frequency:   12.5435353507
  - # 70
    frequency:   12.5988509435
  - # 71
    frequency:   13.5783490202
  - # 72
    frequency:   13.6539044871

- q-position: [    0.1250000,    0.0000000,    0.0000000 ]
  distance:    0.0229593
  band:
  - # 1
    frequency:    0.1902629346
  - # 2
    frequency:    0.8846845617
  - # 3
    frequency:    1.0887241184
  - # 4
    frequency:    1.0928198927
  - # 5
    frequency:    1.6286209345
  - # 6
    frequency:    1.7450304440
  - # 7
    frequency:    4.4613416976
  - # 8
    frequency:    4.5235065544
  - # 9
    frequency:    4.6229632443
  - # 10
    frequency:    4.6229632443
  - # 11
    frequency:    4.6845228348
  - # 12
    frequency:    4.6845228348
  - # 13
    frequency:    4.9034100134
  - # 14
    frequency:    4.9538218286
  - # 15
    frequency:    5.6253290657
  - # 16
    frequency:    5.6253290657
  - # 17
    frequency:    5.6645901380
  - # 18
    frequency:    5.6645901380
  - # 19
    frequency:    7.3749215461
  - # 20
    frequency:    7.3749215461
  - # 21
    frequency:    7.4120868789
  - # 22
    frequency:    7.4120868789
  - # 23
    frequency:    7.8406762691
  - # 24
    frequency:    7.8787491341
  - # 25
    frequency:    7.9156853731
  - # 26
    frequency:    7.9715066527
  - # 27
    frequency:    8.0651442321
  - # 28
    frequency:    8.1133235288
  - # 29
    frequency:    8.9492767082
  - # 30
    frequency:    9.0165775586
  - # 31
    frequency:    9.5395874778
  - # 32
    frequency:    9.5395874778
  - # 33
    frequency:    9.6045937026
  - # 34
    frequency:    9.6045937026
  - # 35
    frequency:   10.2589245251
  - # 36
    frequency:   10.2589245251
  - # 37
    frequency:   10.3211032154
  - # 38
    frequency:   10.3211032154
  - # 39
    frequency:   10.5044015745
  - # 40
    frequency:   10.5737152754
  - # 41
    frequency:   10.5737152754
  - # 42
    frequency:   10.5933015867
  - # 43
    frequency:   10.6052120168
  - # 44
    frequency:   10.6149568139
  - # 45
    frequency:   10.6717947390
  - # 46
    frequency:   10.6717947390
  - # 47
    frequency:   10.6936800393
  - # 48
    frequency:   10.7210438874
  - # 49
    frequency:   10.7886656303
  - # 50
    frequency:   10.8554536944
  - # 51
    frequency:   11.1004954912
  - # 52
    frequency:   11.1399760435
  - # 53
    frequency:   11.4937808447
  - # 54
    frequency:   11.6129940646
  - # 55
    frequency:   11.6760579795
  - # 56
    frequency:   11.6760579795
  - # 57
    frequency:   11.7141727396
  - # 58
    frequency:   11.7141727396
  - # 59
    frequency:   12.0216686000
  - # 60
    frequency:   12.0216686000
  - # 61
    frequency:   12.0674562914
  - # 62
    frequency:   12.0674562914
  - # 63
    frequency:   12.3217088373
  - # 64
    frequency:   12.3651033660
  - # 65
    frequency:   12.4744679920
  - # 66
    frequency:   12.4744679920
  - # 67
    frequency:   12.5348974947
  - # 68
    frequency:   12.5348974947
  - # 69
    frequency:   12.5443188570
  - # 70
    frequency:   12.6039977548
  - # 71
    frequency:   13.5588145071
  - # 72
    frequency:   13.6339544512

- q-position: [    0.1500000,    0.0000000,    0.0000000 ]
  distance:    0.0275512
  band:
  - # 1
    frequency:    0.2943249570
  - # 2
    frequency:    1.0586684341
  - # 3
    frequency:    1.0909420601
  - # 4
    frequency:    1.2388982207
  - # 5
    frequency:    1.9474243930
  - # 6
    frequency:    2.0451279393
  - # 7
    frequency:    4.4227959866
  - # 8
    frequency:    4.4851923627
  - # 9
    frequency:    4.6549529378
  - # 10
    frequency:    4.6549529378
  - # 11
    frequency:    4.7156313066
  - # 12
    frequency:    4.7156313066
  - # 13
    frequency:    4.8153360819
  - # 14
    frequency:    4.8662317066
  - # 15
    frequency:    5.5309661929
  - # 16
    frequency:    5.5309661929
  - # 17
    frequency:    5.5710652215
  - # 18
    frequency:    5.5710652215
  - # 19
    frequency:    7.4371386767
  - # 20
    frequency:    7.4371386767
  - # 21
    frequency:    7.4725137508
  - # 22
    frequency:    7.4725137508
  - # 23
    frequency:    7.7914662217
  - # 24
    frequency:    7.8306681840
  - # 25
    frequency:    7.9352162745
  - # 26
    frequency:    7.9913290788
  - # 27
    frequency:    8.1459289903
  - # 28
    frequency:    8.1913109805
  - # 29
    frequency:    8.9319106136
  - # 30
    frequency:    8.9990702889
  - # 31
    frequency:    9.5041535106
  - # 32
    frequency:    9.5041535106
  - # 33
    frequency:    9.5676059485
  - # 34
    frequency:    9.5676059485
  - # 35
    frequency:   10.2886727322
  - # 36
    frequency:   10.2886727322
  - # 37
    frequency:   10.3491292964
  - # 38
    frequency:   10.3491292964
  - # 39
    frequency:   10.5112946361
  - # 40
    frequency:   10.5636937565
  - # 41
    frequency:   10.5636937565
  - # 42
    frequency:   10.5637277141
  - # 43
    frequency:   10.5728708703
  - # 44
    frequency:   10.6200766908
  - # 45
    frequency:   10.6619910886
  - # 46
    frequency:   10.6619910886
  - # 47
    frequency:   10.7011543448
  - # 48
    frequency:   10.7287345737
  - # 49
    frequency:   10.7473572451
  - # 50
    frequency:   10.8168528578
  - # 51
    frequency:   11.0934963450
  - # 52
    frequency:   11.1327596635
  - # 53
    frequency:   11.5431438620
  - # 54
    frequency:   11.6497947632
  - # 55
    frequency:   11.6497947632
  - # 56
    frequency:   11.6573070396
  - # 57
    frequency:   11.6883387284
  - # 58
    frequency:   11.6883387284
  - # 59
    frequency:   12.0469581823
  - # 60
    frequency:   12.0469581823
  - # 61
    frequency:   12.0930829458
  - # 62
    frequency:   12.0930829458
  - # 63
    frequency:   12.3247162595
  - # 64
    frequency:   12.3670144822
  - # 65
    frequency:   12.4808125498
  - # 66
    frequency:   12.4808125498
  - # 67
    frequency:   12.5404292709
  - # 68
    frequency:   12.5404292709
  - # 69
    frequency:   12.5445838665
  - # 70
    frequency:   12.6086380583
  - # 71
    frequency:   13.5350892692
  - # 72
    frequency:   13.6097082253

- q-position: [    0.1750000,    0.0000000,    0.0000000 ]
  distance:    0.0321431
  band:
  - # 1
    frequency:    0.4108514977
  - # 2
    frequency:    1.1042723661
  - # 3
    frequency:    1.2310480342
  - # 4
    frequency:    1.3901410557
  - # 5
    frequency:    2.2638907494
  - # 6
    frequency:    2.3472715777
  - # 7
    frequency:    4.3773929371
  - # 8
    frequency:    4.4400706971
  - # 9
    frequency:    4.6911351904
  - # 10
    frequency:    4.6911351904
  - # 11
    frequency:    4.7139557315
  - # 12
    frequency:    4.7508135073
  - # 13
    frequency:    4.7508135073
  - # 14
    frequency:    4.7650162291
  - # 15
    frequency:    5.4314177693
  - # 16
    frequency:    5.4314177693
  - # 17
    frequency:    5.4727850573
  - # 18
    frequency:    5.4727850573
  - # 19
    frequency:    7.4999477622
  - # 20
    frequency:    7.4999477622
  - # 21
    frequency:    7.5337720823
  - # 22
    frequency:    7.5337720823
  - # 23
    frequency:    7.7322081661
  - # 24
    frequency:    7.7722548001
  - # 25
    frequency:    7.9579524204
  - # 26
    frequency:    8.0143998439
  - # 27
    frequency:    8.2378763204
  - # 28
    frequency:    8.2801163646
  - # 29
    frequency:    8.9116005230
  - # 30
    frequency:    8.9785933017
  - # 31
    frequency:    9.4637834145
  - # 32
    frequency:    9.4637834145
  - # 33
    frequency:    9.5259644276
  - # 34
    frequency:    9.5259644276
  - # 35
    frequency:   10.3229788976
  - # 36
    frequency:   10.3229788976
  - # 37
    frequency:   10.3812836078
  - # 38
    frequency:   10.3812836078
  - # 39
    frequency:   10.5152756033
  - # 40
    frequency:   10.5325531872
  - # 41
    frequency:   10.5401097710
  - # 42
    frequency:   10.5536335000
  - # 43
    frequency:   10.5536335000
  - # 44
    frequency:   10.6205734602
  - # 45
    frequency:   10.6521836414
  - # 46
    frequency:   10.6521836414
  - # 47
    frequency:   10.7031604175
  - # 48
    frequency:   10.7098668999
  - # 49
    frequency:   10.7376994231
  - # 50
    frequency:   10.7742245754
  - # 51
    frequency:   11.0853165748
  - # 52
    frequency:   11.1243264763
  - # 53
    frequency:   11.5960218823
  - # 54
    frequency:   11.6198479322
  - # 55
    frequency:   11.6198479322
  - # 56
    frequency:   11.6589486707
  - # 57
    frequency:   11.6589486707
  - # 58
    frequency:   11.7055208129
  - # 59
    frequency:   12.0743096431
  - # 60
    frequency:   12.0743096431
  - # 61
    frequency:   12.1206930449
  - # 62
    frequency:   12.1206930449
  - # 63
    frequency:   12.3308481504
  - # 64
    frequency:   12.3713988436
  - # 65
    frequency:   12.4874880432
  - # 66
    frequency:   12.4874880432
  - # 67
    frequency:   12.5438731434
  - # 68
    frequency:   12.5461975568
  - # 69
    frequency:   12.5461975568
  - # 70
    frequency:   12.6121926991
  - # 71
    frequency:   13.5072664757
  - # 72
    frequency:   13.5812509702

- q-position: [    0.2000000,    0.0000000,    0.0000000 ]
  distance:    0.0367350
  band:
  - # 1
    frequency:    0.5396535167
  - # 2
    frequency:    1.1328519027
  - # 3
    frequency:    1.4015613850
  - # 4
    frequency:    1.5442524446
  - # 5
    frequency:    2.5771730116
  - # 6
    frequency:    2.6491816122
  - # 7
    frequency:    4.3252072681
  - # 8
    frequency:    4.3882204366
  - # 9
    frequency:    4.6003512276
  - # 10
    frequency:    4.6511493979
  - # 11
    frequency:    4.7307341373
  - # 12
    frequency:    4.7307341373
  - # 13
    frequency:    4.7893119530
  - # 14
    frequency:    4.7893119530
  - # 15
    frequency:    5.3293880373
  - # 16
    frequency:    5.3293880373
  - # 17
    frequency:    5.3723754776
  - # 18
    frequency:    5.3723754776
  - # 19
    frequency:    7.5614816145
  - # 20
    frequency:    7.5614816145
  - # 21
    frequency:    7.5940310135
  - # 22
    frequency:    7.5940310135
  - # 23
    frequency:    7.6624018377
  - # 24
    frequency:    7.7028693564
  - # 25
    frequency:    7.9837277773
  - # 26
    frequency:    8.0405485137
  - # 27
    frequency:    8.3395635048
  - # 28
    frequency:    8.3783651744
  - # 29
    frequency:    8.8884523281
  - # 30
    frequency:    8.9552525110
  - # 31
    frequency:    9.4193331918
  - # 32
    frequency:    9.4193331918
  - # 33
    frequency:    9.4806400994
  - # 34
    frequency:    9.4806400994
  - # 35
    frequency:   10.3614181638
  - # 36
    frequency:   10.3614181638
  - # 37
    frequency:   10.4168969589
  - # 38
    frequency:   10.4168969589
  - # 39
    frequency:   10.5007331931
  - # 40
    frequency:   10.5079267009
  - # 41
    frequency:   10.5146343371
  - # 42
    frequency:   10.5442394393
  - # 43
    frequency:   10.5442394393
  - # 44
    frequency:   10.6127109364
  - # 45
    frequency:   10.6428042952
  - # 46
    frequency:   10.6428042952
  - # 47
    frequency:   10.6592391019
  - # 48
    frequency:   10.7197591157
  - # 49
    frequency:   10.7289954963
  - # 50
    frequency:   10.7478782083
  - # 51
    frequency:   11.0760016475
  - # 52
    frequency:   11.1147235659
  - # 53
    frequency:   11.5866110567
  - # 54
    frequency:   11.5866110567
  - # 55
    frequency:   11.6263732713
  - # 56
    frequency:   11.6263732713
  - # 57
    frequency:   11.6513259351
  - # 58
    frequency:   11.7565971427
  - # 59
    frequency:   12.1028564436
  - # 60
    frequency:   12.1028564436
  - # 61
    frequency:   12.1494068235
  - # 62
    frequency:   12.1494068235
  - # 63