ITEM: TIMESTEP
0
ITEM: NUMBER OF ATOMS
24
ITEM: BOX BOUNDS pp pp pp
0.0000000000000000e+00 5.4444059999999999e+00
0.0000000000000000e+00 6.2866580000000001e+00
0.0000000000000000e+00 1.0662777000000000e+02
ITEM: ATOMS id type x y z 
1 3 5.43141 6.26824 53.2723 
2 2 0.894406 1.55325 51.7165 
3 1 5.43141 6.26824 50.1605 
4 3 2.70921 1.55325 53.2723 
5 2 3.61661 6.26824 51.7165 
6 1 2.70921 1.55325 50.1605 
7 3 5.43141 3.12491 53.2723 
8 2 0.894406 4.69657 51.7165 
9 1 5.43141 3.12491 50.1605 
10 3 2.70921 4.69657 53.2723 
11 2 3.61661 3.12491 51.7165 
12 1 2.70921 4.69657 50.1605 
13 6 0.894406 1.55325 59.3485 
14 5 5.43141 6.26824 57.7925 
15 4 0.894406 1.55325 56.2367 
16 6 3.61661 6.26824 59.3485 
17 5 2.70921 1.55325 57.7925 
18 4 3.61661 6.26824 56.2367 
19 6 0.894406 4.69657 59.3485 
20 5 5.43141 3.12491 57.7925 
21 4 0.894406 4.69657 56.2367 
22 6 3.61661 3.12491 59.3485 
23 5 2.70921 4.69657 57.7925 
24 4 3.61661 3.12491 56.2367 
ITEM: TIMESTEP
1
ITEM: NUMBER OF ATOMS
24
ITEM: BOX BOUNDS pp pp pp
0.0000000000000000e+00 5.4444059999999999e+00
0.0000000000000000e+00 6.2866580000000001e+00
0.0000000000000000e+00 1.0662777000000000e+02
ITEM: ATOMS id type x y z 
1 3 5.43141 6.26824 53.3558 
2 2 0.894407 1.55324 51.7165 
3 1 5.43141 6.26824 50.077 
4 3 2.70921 1.55325 53.3558 
5 2 3.61661 6.26824 51.7165 
6 1 2.70921 1.55325 50.077 
7 3 5.43141 3.12491 53.3558 
8 2 0.894407 4.69658 51.7165 
9 1 5.43141 3.12491 50.077 
10 3 2.70921 4.69657 53.3558 
11 2 3.61661 3.12491 51.7165 
12 1 2.70921 4.69657 50.077 
13 6 0.894407 1.55325 59.432 
14 5 5.43142 6.26824 57.7925 
15 4 0.894407 1.55325 56.1532 
16 6 3.61661 6.26824 59.432 
17 5 2.70921 1.55324 57.7925 
18 4 3.61661 6.26824 56.1532 
19 6 0.894406 4.69657 59.432 
20 5 5.43141 3.12491 57.7925 
21 4 0.894406 4.69657 56.1532 
22 6 3.61661 3.12491 59.432 
23 5 2.70921 4.69658 57.7925 
24 4 3.61661 3.12491 56.1532 
ITEM: TIMESTEP
2
ITEM: NUMBER OF ATOMS
24
ITEM: BOX BOUNDS pp pp pp
0.0000000000000000e+00 5.4444059999999999e+00
0.0000000000000000e+00 6.2866580000000001e+00
0.0000000000000000e+00 1.0662777000000000e+02
ITEM: ATOMS id type x y z 
1 3 5.43141 6.26824 53.353 
2 2 0.894406 1.55325 51.7165 
3 1 5.43141 6.26824 50.0739 
4 3 2.70921 1.55325 53.353 
5 2 3.61661 6.26824 51.7165 
6 1 2.70921 1.55325 50.0739 
7 3 5.43141 3.12491 53.353 
8 2 0.894406 4.69657 51.7165 
9 1 5.43141 3.12491 50.0739 
10 3 2.70921 4.69657 53.353 
11 2 3.61661 3.12491 51.7165 
12 1 2.70921 4.69657 50.0739 
13 6 0.894406 1.55325 59.4351 
14 5 5.43141 6.26824 57.7925 
15 4 0.894406 1.55325 56.156 
16 6 3.61661 6.26824 59.4351 
17 5 2.70921 1.55325 57.7925 
18 4 3.61661 6.26824 56.156 
19 6 0.894407 4.69657 59.4351 
20 5 5.43141 3.12491 57.7925 
21 4 0.894407 4.69657 56.156 
22 6 3.61661 3.12491 59.4351 
23 5 2.70921 4.69657 57.7925 
24 4 3.61661 3.12491 56.156 
ITEM: TIMESTEP
3
ITEM: NUMBER OF ATOMS
24
ITEM: BOX BOUNDS pp pp pp
0.0000000000000000e+00 5.4444059999999999e+00
0.0000000000000000e+00 6.2866580000000001e+00
0.0000000000000000e+00 1.0662777000000000e+02
ITEM: ATOMS id type x y z 
1 3 5.43141 6.26824 53.3456 
2 2 0.894407 1.55324 51.709 
3 1 5.43141 6.26824 50.0736 
4 3 2.70921 1.55324 53.3456 
5 2 3.61661 6.26824 51.709 
6 1 2.70921 1.55324 50.0736 
7 3 5.43141 3.12491 53.3456 
8 2 0.894407 4.69658 51.709 
9 1 5.43141 3.12491 50.0736 
10 3 2.70921 4.69658 53.3456 
11 2 3.61661 3.12491 51.709 
12 1 2.70921 4.69658 50.0736 
13 6 0.894407 1.55324 59.4354 
14 5 5.43141 6.26824 57.8 
15 4 0.894407 1.55324 56.1634 
16 6 3.61661 6.26824 59.4354 
17 5 2.70921 1.55324 57.8 
18 4 3.61661 6.26824 56.1634 
19 6 0.894407 4.69658 59.4354 
20 5 5.43141 3.12491 57.8 
21 4 0.894407 4.69658 56.1634 
22 6 3.61661 3.12491 59.4354 
23 5 2.70921 4.69658 57.8 
24 4 3.61661 3.12491 56.1634 
ITEM: TIMESTEP
4
ITEM: NUMBER OF ATOMS
24
ITEM: BOX BOUNDS pp pp pp
0.0000000000000000e+00 5.4444059999999999e+00
0.0000000000000000e+00 6.2866580000000001e+00
0.0000000000000000e+00 1.0662777000000000e+02
ITEM: ATOMS id type x y z 
1 3 5.43141 6.26824 53.3312 
2 2 0.894407 1.55324 51.7011 
3 1 5.43141 6.26824 50.0631 
4 3 2.70921 1.55324 53.3312 
5 2 3.61661 6.26824 51.7011 
6 1 2.70921 1.55324 50.0631 
7 3 5.43141 3.12491 53.3312 
8 2 0.894406 4.69658 51.7011 
9 1 5.43141 3.12491 50.0631 
10 3 2.70921 4.69658 53.3312 
11 2 3.61661 3.12491 51.7011 
12 1 2.70921 4.69658 50.0631 
13 6 0.894407 1.55324 59.4459 
14 5 5.43141 6.26824 57.8079 
15 4 0.894407 1.55324 56.1778 
16 6 3.61661 6.26824 59.4459 
17 5 2.70921 1.55324 57.8079 
18 4 3.61661 6.26824 56.1778 
19 6 0.894406 4.69658 59.4459 
20 5 5.43141 3.12491 57.8079 
21 4 0.894406 4.69658 56.1778 
22 6 3.61661 3.12491 59.4459 
23 5 2.70921 4.69658 57.8079 
24 4 3.61661 3.12491 56.1778 
ITEM: TIMESTEP
5
ITEM: NUMBER OF ATOMS
24
ITEM: BOX BOUNDS pp pp pp
0.0000000000000000e+00 5.4444059999999999e+00
0.0000000000000000e+00 6.2866580000000001e+00
0.0000000000000000e+00 1.0662777000000000e+02
ITEM: ATOMS id type x y z 
1 3 5.43141 6.26824 53.2615 
2 2 0.894404 1.55326 51.6267 
3 1 5.43141 6.26824 49.9891 
4 3 2.70921 1.55325 53.2615 
5 2 3.61661 6.26824 51.6267 
6 1 2.70921 1.55325 49.9891 
7 3 5.43141 3.12491 53.2615 
8 2 0.894404 4.69657 51.6267 
9 1 5.43141 3.12491 49.9891 
10 3 2.70921 4.69657 53.2615 
11 2 3.61661 3.12491 51.6267 
12 1 2.70921 4.69657 49.9891 
13 6 0.894406 1.55325 59.5199 
14 5 5.43141 6.26824 57.8823 
15 4 0.894406 1.55325 56.2475 
16 6 3.61661 6.26824 59.5199 
17 5 2.70921 1.55326 57.8823 
18 4 3.61661 6.26824 56.2475 
19 6 0.894405 4.69657 59.5199 
20 5 5.4314 3.12491 57.8823 
21 4 0.894405 4.69657 56.2475 
22 6 3.61661 3.12491 59.5199 
23 5 2.70921 4.69657 57.8823 
24 4 3.61661 3.12491 56.2475 
ITEM: TIMESTEP
6
ITEM: NUMBER OF ATOMS
24
ITEM: BOX BOUNDS pp pp pp
0.0000000000000000e+00 5.4444059999999999e+00
0.0000000000000000e+00 6.2866580000000001e+00
0.0000000000000000e+00 1.0662777000000000e+02
ITEM: ATOMS id type x y z 
1 3 5.43141 6.26824 53.2656 
2 2 0.894409 1.55324 51.6249 
3 1 5.43141 6.26824 49.9872 
4 3 2.70921 1.55325 53.2656 
5 2 3.61661 6.26824 51.6249 
6 1 2.70921 1.55325 49.9872 
7 3 5.43141 3.12491 53.2656 
8 2 0.894409 4.69658 51.6249 
9 1 5.43141 3.12491 49.9872 
10 3 2.70921 4.69657 53.2656 
11 2 3.6166 3.12491 51.6249 
12 1 2.70921 4.69657 49.9872 
13 6 0.894407 1.55325 59.5218 
14 5 5.43141 6.26824 57.8841 
15 4 0.894407 1.55325 56.2434 
16 6 3.61661 6.26824 59.5218 
17 5 2.7092 1.55324 57.8841 
18 4 3.61661 6.26824 56.2434 
19 6 0.894407 4.69657 59.5218 
20 5 5.43142 3.12491 57.8841 
21 4 0.894406 4.69657 56.2434 
22 6 3.61661 3.12491 59.5218 
23 5 2.7092 4.69658 57.8841 
24 4 3.61661 3.12491 56.2434 
ITEM: TIMESTEP
7
ITEM: NUMBER OF ATOMS
24
ITEM: BOX BOUNDS pp pp pp
0.0000000000000000e+00 5.4444059999999999e+00
0.0000000000000000e+00 6.2866580000000001e+00
0.0000000000000000e+00 1.0662777000000000e+02
ITEM: ATOMS id type x y z 
1 3 5.43141 6.26824 53.2665 
2 2 0.894407 1.55324 51.6258 
3 1 5.43141 6.26824 49.9858 
4 3 2.70921 1.55325 53.2665 
5 2 3.61661 6.26824 51.6258 
6 1 2.70921 1.55325 49.9858 
7 3 5.43141 3.12491 53.2665 
8 2 0.894408 4.69658 51.6258 
9 1 5.43141 3.12491 49.9857 
10 3 2.70921 4.69657 53.2665 
11 2 3.61661 3.12491 51.6258 
12 1 2.70921 4.69657 49.9858 
13 6 0.894407 1.55325 59.5232 
14 5 5.43141 6.26824 57.8832 
15 4 0.894407 1.55325 56.2425 
16 6 3.61661 6.26824 59.5232 
17 5 2.70921 1.55324 57.8832 
18 4 3.61661 6.26824 56.2425 
19 6 0.894407 4.69657 59.5232 
20 5 5.43142 3.12491 57.8832 
21 4 0.894407 4.69657 56.2425 
22 6 3.61661 3.12491 59.5233 
23 5 2.70921 4.69658 57.8832 
24 4 3.61661 3.12491 56.2425 
ITEM: TIMESTEP
8
ITEM: NUMBER OF ATOMS
24
ITEM: BOX BOUNDS pp pp pp
0.0000000000000000e+00 5.4444059999999999e+00
0.0000000000000000e+00 6.2866580000000001e+00
0.0000000000000000e+00 1.0662777000000000e+02
ITEM: ATOMS id type x y z 
1 3 5.43141 6.26824 53.266 
2 2 0.894406 1.55325 51.6262 
3 1 5.43141 6.26824 49.9859 
4 3 2.70921 1.55325 53.266 
5 2 3.61661 6.26824 51.6262 
6 1 2.70921 1.55325 49.9859 
7 3 5.43141 3.12491 53.266 
8 2 0.894406 4.69657 51.6262 
9 1 5.43141 3.12491 49.9859 
10 3 2.70921 4.69658 53.266 
11 2 3.61661 3.12491 51.6262 
12 1 2.70921 4.69658 49.9859 
13 6 0.894407 1.55325 59.5231 
14 5 5.43141 6.26824 57.8828 
15 4 0.894407 1.55325 56.243 
16 6 3.61661 6.26824 59.5231 
17 5 2.70921 1.55325 57.8828 
18 4 3.61661 6.26824 56.243 
19 6 0.894407 4.69658 59.5231 
20 5 5.43141 3.12491 57.8828 
21 4 0.894406 4.69658 56.243 
22 6 3.61661 3.12491 59.5231 
23 5 2.70921 4.69657 57.8828 
24 4 3.61661 3.12491 56.243 
ITEM: TIMESTEP
9
ITEM: NUMBER OF ATOMS
24
ITEM: BOX BOUNDS pp pp pp
0.0000000000000000e+00 5.4444059999999999e+00
0.0000000000000000e+00 6.2866580000000001e+00
0.0000000000000000e+00 1.0662777000000000e+02
ITEM: ATOMS id type x y z 
1 3 5.43141 6.26824 53.2659 
2 2 0.894406 1.55325 51.6262 
3 1 5.43141 6.26824 49.9864 
4 3 2.70921 1.55325 53.2659 
5 2 3.61661 6.26824 51.6262 
6 1 2.70921 1.55325 49.9864 
7 3 5.43141 3.12491 53.2659 
8 2 0.894406 4.69657 51.6262 
9 1 5.43141 3.12491 49.9864 
10 3 2.70921 4.69658 53.2659 
11 2 3.61661 3.12491 51.6262 
12 1 2.70921 4.69658 49.9864 
13 6 0.894407 1.55325 59.5226 
14 5 5.43141 6.26824 57.8828 
15 4 0.894407 1.55325 56.2431 
16 6 3.61661 6.26824 59.5226 
17 5 2.70921 1.55325 57.8828 
18 4 3.61661 6.26824 56.2431 
19 6 0.894407 4.69658 59.5226 
20 5 5.43141 3.12491 57.8828 
21 4 0.894406 4.69658 56.2431 
22 6 3.61661 3.12491 59.5226 
23 5 2.70921 4.69657 57.8828 
24 4 3.61661 3.12491 56.2431 
ITEM: TIMESTEP
10
ITEM: NUMBER OF ATOMS
24
ITEM: BOX BOUNDS pp pp pp
0.0000000000000000e+00 5.4444059999999999e+00
0.0000000000000000e+00 6.2866580000000001e+00
0.0000000000000000e+00 1.0662777000000000e+02
ITEM: ATOMS id type x y z 
1 3 5.43141 6.26824 53.2665 
2 2 0.894407 1.55324 51.6274 
3 1 5.43141 6.26824 49.9874 
4 3 2.70921 1.55325 53.2665 
5 2 3.61661 6.26824 51.6274 
6 1 2.70921 1.55325 49.9874 
7 3 5.43141 3.12491 53.2665 
8 2 0.894408 4.69658 51.6274 
9 1 5.43141 3.12491 49.9874 
10 3 2.70921 4.69657 53.2665 
11 2 3.61661 3.12491 51.6274 
12 1 2.70921 4.69657 49.9874 
13 6 0.894407 1.55325 59.5216 
14 5 5.43141 6.26824 57.8816 
15 4 0.894407 1.55325 56.2425 
16 6 3.61661 6.26824 59.5216 
17 5 2.70921 1.55324 57.8816 
18 4 3.61661 6.26824 56.2425 
19 6 0.894407 4.69657 59.5216 
20 5 5.43142 3.12491 57.8816 
21 4 0.894407 4.69657 56.2425 
22 6 3.61661 3.12491 59.5216 
23 5 2.70921 4.69658 57.8816 
24 4 3.61661 3.12491 56.2425 
ITEM: TIMESTEP
11
ITEM: NUMBER OF ATOMS
24
ITEM: BOX BOUNDS pp pp pp
0.0000000000000000e+00 5.4444059999999999e+00
0.0000000000000000e+00 6.2866580000000001e+00
0.0000000000000000e+00 1.0662777000000000e+02
ITEM: ATOMS id type x y z 
1 3 5.4314 6.26824 53.2704 
2 2 0.894406 1.55324 51.6312 
3 1 5.4314 6.26824 49.992 
4 3 2.70921 1.55325 53.2704 
5 2 3.61661 6.26824 51.6312 
6 1 2.70921 1.55325 49.992 
7 3 5.43142 3.12491 53.2704 
8 2 0.894406 4.69658 51.6312 
9 1 5.43142 3.12491 49.992 
10 3 2.70921 4.69657 53.2704 
11 2 3.61661 3.12491 51.6312 
12 1 2.70921 4.69657 49.992 
13 6 0.894405 1.55325 59.517 
14 5 5.43141 6.26824 57.8778 
15 4 0.894406 1.55325 56.2386 
16 6 3.61662 6.26824 59.517 
17 5 2.70921 1.55324 57.8778 
18 4 3.61662 6.26824 56.2386 
19 6 0.894407 4.69657 59.517 
20 5 5.43141 3.12491 57.8778 
21 4 0.894407 4.69657 56.2386 
22 6 3.6166 3.12491 59.517 
23 5 2.70921 4.69658 57.8778 
24 4 3.6166 3.12491 56.2386 
ITEM: TIMESTEP
12
ITEM: NUMBER OF ATOMS
24
ITEM: BOX BOUNDS pp pp pp
0.0000000000000000e+00 5.4444059999999999e+00
0.0000000000000000e+00 6.2866580000000001e+00
0.0000000000000000e+00 1.0662777000000000e+02
ITEM: ATOMS id type x y z 
1 3 5.43141 6.26824 53.2724 
2 2 0.894407 1.55326 51.633 
3 1 5.43141 6.26824 49.9932 
4 3 2.70921 1.55325 53.2724 
5 2 3.6166 6.26824 51.633 
6 1 2.70921 1.55324 49.9932 
7 3 5.43142 3.12491 53.2724 
8 2 0.894405 4.69657 51.633 
9 1 5.43142 3.12491 49.9932 
10 3 2.70921 4.69657 53.2724 
11 2 3.61662 3.12491 51.633 
12 1 2.70921 4.69657 49.9932 
13 6 0.894406 1.55324 59.5158 
14 5 5.43142 6.26824 57.876 
15 4 0.894406 1.55325 56.2366 
16 6 3.61662 6.26824 59.5158 
17 5 2.70921 1.55326 57.876 
18 4 3.61661 6.26824 56.2366 
19 6 0.894407 4.69657 59.5158 
20 5 5.4314 3.12491 57.876 
21 4 0.894407 4.69657 56.2366 
22 6 3.6166 3.12491 59.5158 
23 5 2.70921 4.69657 57.876 
24 4 3.61661 3.12491 56.2366 
ITEM: TIMESTEP
13
ITEM: NUMBER OF ATOMS
24
ITEM: BOX BOUNDS pp pp pp
0.0000000000000000e+00 5.4444059999999999e+00
0.0000000000000000e+00 6.2866580000000001e+00
0.0000000000000000e+00 1.0662777000000000e+02
ITEM: ATOMS id type x y z 
1 3 5.43141 6.26824 53.2725 
2 2 0.894407 1.55325 51.633 
3 1 5.43141 6.26824 49.9933 
4 3 2.70921 1.55325 53.2725 
5 2 3.61661 6.26824 51.633 
6 1 2.70921 1.55324 49.9933 
7 3 5.43142 3.12491 53.2725 
8 2 0.894406 4.69658 51.633 
9 1 5.43142 3.12491 49.9933 
10 3 2.70921 4.69657 53.2725 
11 2 3.61661 3.12491 51.633 
12 1 2.70921 4.69657 49.9933 
13 6 0.894406 1.55324 59.5157 
14 5 5.43142 6.26824 57.876 
15 4 0.894406 1.55325 56.2365 
16 6 3.61661 6.26824 59.5157 
17 5 2.70921 1.55325 57.876 
18 4 3.61661 6.26824 56.2365 
19 6 0.894407 4.69657 59.5157 
20 5 5.43141 3.12491 57.876 
21 4 0.894407 4.69657 56.2365 
22 6 3.61661 3.12491 59.5157 
23 5 2.70921 4.69658 57.876 
24 4 3.61661 3.12491 56.2365 
ITEM: TIMESTEP
14
ITEM: NUMBER OF ATOMS
24
ITEM: BOX BOUNDS pp pp pp
0.0000000000000000e+00 5.4444059999999999e+00
0.0000000000000000e+00 6.2866580000000001e+00
0.0000000000000000e+00 1.0662777000000000e+02
ITEM: ATOMS id type x y z 
1 3 5.43141 6.26824 53.2725 
2 2 0.894406 1.55324 51.633 
3 1 5.43141 6.26824 49.9933 
4 3 2.70921 1.55325 53.2725 
5 2 3.61662 6.26824 51.633 
6 1 2.70921 1.55325 49.9933 
7 3 5.43141 3.12491 53.2725 
8 2 0.894407 4.69658 51.633 
9 1 5.43141 3.12491 49.9933 
10 3 2.70921 4.69657 53.2725 
11 2 3.6166 3.12491 51.633 
12 1 2.70921 4.69657 49.9933 
13 6 0.894407 1.55325 59.5157 
14 5 5.4314 6.26824 57.876 
15 4 0.894406 1.55325 56.2365 
16 6 3.61661 6.26824 59.5157 
17 5 2.70921 1.55324 57.876 
18 4 3.61661 6.26824 56.2365 
19 6 0.894407 4.69657 59.5157 
20 5 5.43142 3.12491 57.876 
21 4 0.894406 4.69657 56.2365 
22 6 3.61661 3.12491 59.5157 
23 5 2.70921 4.69658 57.876 
24 4 3.61661 3.12491 56.2365 
ITEM: TIMESTEP
15
ITEM: NUMBER OF ATOMS
24
ITEM: BOX BOUNDS pp pp pp
0.0000000000000000e+00 5.4444059999999999e+00
0.0000000000000000e+00 6.2866580000000001e+00
0.0000000000000000e+00 1.0662777000000000e+02
ITEM: ATOMS id type x y z 
1 3 5.43142 6.26824 53.2725 
2 2 0.894405 1.55325 51.6331 
3 1 5.43142 6.26824 49.9933 
4 3 2.70921 1.55324 53.2725 
5 2 3.61662 6.26824 51.6331 
6 1 2.70921 1.55324 49.9933 
7 3 5.4314 3.12491 53.2725 
8 2 0.894407 4.69657 51.6331 
9 1 5.4314 3.12491 49.9933 
10 3 2.70921 4.69658 53.2725 
11 2 3.6166 3.12491 51.6331 
12 1 2.70921 4.69658 49.9933 
13 6 0.894408 1.55324 59.5157 
14 5 5.4314 6.26824 57.8759 
15 4 0.894407 1.55324 56.2365 
16 6 3.6166 6.26824 59.5157 
17 5 2.70921 1.55325 57.8759 
18 4 3.6166 6.26824 56.2365 
19 6 0.894406 4.69658 59.5157 
20 5 5.43142 3.12491 57.8759 
21 4 0.894405 4.69658 56.2365 
22 6 3.61662 3.12491 59.5157 
23 5 2.70921 4.69657 57.8759 
24 4 3.61662 3.12491 56.2365 
ITEM: TIMESTEP
16
ITEM: NUMBER OF ATOMS
24
ITEM: BOX BOUNDS pp pp pp
0.0000000000000000e+00 5.4444059999999999e+00
0.0000000000000000e+00 6.2866580000000001e+00
0.0000000000000000e+00 1.0662777000000000e+02
ITEM: ATOMS id type x y z 
1 3 5.43142 6.26823 53.2726 
2 2 0.894406 1.55325 51.6331 
3 1 5.43142 6.26823 49.9934 
4 3 2.70921 1.55324 53.2726 
5 2 3.61661 6.26824 51.6331 
6 1 2.70921 1.55325 49.9934 
7 3 5.4314 3.12491 53.2726 
8 2 0.894407 4.69657 51.6331 
9 1 5.4314 3.12491 49.9934 
10 3 2.70921 4.69658 53.2726 
11 2 3.61661 3.12491 51.6331 
12 1 2.70921 4.69658 49.9934 
13 6 0.894408 1.55325 59.5156 
14 5 5.43141 6.26824 57.8759 
15 4 0.894407 1.55324 56.2364 
16 6 3.6166 6.26823 59.5156 
17 5 2.70921 1.55325 57.8759 
18 4 3.6166 6.26823 56.2364 
19 6 0.894406 4.69658 59.5156 
20 5 5.43141 3.12491 57.8759 
21 4 0.894405 4.69658 56.2364 
22 6 3.61662 3.12491 59.5156 
23 5 2.70921 4.69657 57.8759 
24 4 3.61662 3.12491 56.2364 
ITEM: TIMESTEP
17
ITEM: NUMBER OF ATOMS
24
ITEM: BOX BOUNDS pp pp pp
0.0000000000000000e+00 5.4444059999999999e+00
0.0000000000000000e+00 6.2866580000000001e+00
0.0000000000000000e+00 1.0662777000000000e+02
ITEM: ATOMS id type x y z 
1 3 5.43142 6.26823 53.2726 
2 2 0.894406 1.55324 51.6331 
3 1 5.43142 6.26823 49.9934 
4 3 2.70921 1.55325 53.2726 
5 2 3.61662 6.26824 51.6331 
6 1 2.70921 1.55325 49.9934 
7 3 5.4314 3.12491 53.2726 
8 2 0.894407 4.69657 51.6331 
9 1 5.4314 3.12491 49.9934 
10 3 2.70921 4.69658 53.2726 
11 2 3.6166 3.12491 51.6331 
12 1 2.70921 4.69658 49.9934 
13 6 0.894408 1.55325 59.5156 
14 5 5.43141 6.26824 57.8759 
15 4 0.894407 1.55325 56.2364 
16 6 3.6166 6.26823 59.5156 
17 5 2.70921 1.55324 57.8759 
18 4 3.6166 6.26823 56.2364 
19 6 0.894406 4.69658 59.5156 
20 5 5.43142 3.12491 57.8759 
21 4 0.894405 4.69658 56.2364 
22 6 3.61662 3.12491 59.5156 
23 5 2.70921 4.69657 57.8759 
24 4 3.61662 3.12491 56.2364 
ITEM: TIMESTEP
18
ITEM: NUMBER OF ATOMS
24
ITEM: BOX BOUNDS pp pp pp
0.0000000000000000e+00 5.4444059999999999e+00
0.0000000000000000e+00 6.2866580000000001e+00
0.0000000000000000e+00 1.0662777000000000e+02
ITEM: ATOMS id type x y z 
1 3 5.43141 6.26824 53.2726 
2 2 0.894406 1.55324 51.6332 
3 1 5.43142 6.26824 49.9934 
4 3 2.70921 1.55325 53.2726 
5 2 3.61662 6.26824 51.6332 
6 1 2.70921 1.55325 49.9934 
7 3 5.43141 3.12491 53.2726 
8 2 0.894407 4.69657 51.6332 
9 1 5.43141 3.12491 49.9934 
10 3 2.70921 4.69658 53.2726 
11 2 3.6166 3.12491 51.6332 
12 1 2.70921 4.69658 49.9934 
13 6 0.894407 1.55325 59.5156 
14 5 5.43141 6.26824 57.8758 
15 4 0.894406 1.55325 56.2364 
16 6 3.6166 6.26824 59.5156 
17 5 2.70921 1.55324 57.8758 
18 4 3.61661 6.26824 56.2364 
19 6 0.894406 4.69658 59.5156 
20 5 5.43142 3.12491 57.8758 
21 4 0.894406 4.69658 56.2364 
22 6 3.61661 3.12491 59.5156 
23 5 2.70921 4.69657 57.8758 
24 4 3.61661 3.12491 56.2364 
ITEM: TIMESTEP
19
ITEM: NUMBER OF ATOMS
24
ITEM: BOX BOUNDS pp pp pp
0.0000000000000000e+00 5.4444059999999999e+00
0.0000000000000000e+00 6.2866580000000001e+00
0.0000000000000000e+00 1.0662777000000000e+02
ITEM: ATOMS id type x y z 
1 3 5.43141 6.26824 53.2726 
2 2 0.894406 1.55325 51.6332 
3 1 5.43141 6.26824 49.9934 
4 3 2.70921 1.55325 53.2726 
5 2 3.61661 6.26824 51.6332 
6 1 2.70921 1.55325 49.9934 
7 3 5.43141 3.12491 53.2726 
8 2 0.894406 4.69657 51.6332 
9 1 5.43141 3.12491 49.9934 
10 3 2.70921 4.69658 53.2726 
11 2 3.61661 3.12491 51.6332 
12 1 2.70921 4.69658 49.9934 
13 6 0.894407 1.55325 59.5156 
14 5 5.43141 6.26824 57.8758 
15 4 0.894406 1.55325 56.2364 
16 6 3.61661 6.26824 59.5156 
17 5 2.70921 1.55325 57.8758 
18 4 3.61661 6.26824 56.2364 
19 6 0.894407 4.69658 59.5156 
20 5 5.43141 3.12491 57.8758 
21 4 0.894406 4.69658 56.2364 
22 6 3.61661 3.12491 59.5156 
23 5 2.70921 4.69657 57.8758 
24 4 3.61661 3.12491 56.2364 
ITEM: TIMESTEP
20
ITEM: NUMBER OF ATOMS
24
ITEM: BOX BOUNDS pp pp pp
0.0000000000000000e+00 5.4444059999999999e+00
0.0000000000000000e+00 6.2866580000000001e+00
0.0000000000000000e+00 1.0662777000000000e+02
ITEM: ATOMS id type x y z 
1 3 5.43141 6.26824 53.2727 
2 2 0.894407 1.55324 51.6332 
3 1 5.43141 6.26824 49.9934 
4 3 2.70921 1.55325 53.2726 
5 2 3.61661 6.26824 51.6332 
6 1 2.70921 1.55325 49.9934 
7 3 5.43141 3.12491 53.2726 
8 2 0.894406 4.69657 51.6332 
9 1 5.43141 3.12491 49.9934 
10 3 2.70921 4.69658 53.2726 
11 2 3.61661 3.12491 51.6332 
12 1 2.70921 4.69658 49.9934 
13 6 0.894406 1.55325 59.5156 
14 5 5.43141 6.26824 57.8758 
15 4 0.894406 1.55325 56.2364 
16 6 3.61661 6.26824 59.5156 
17 5 2.70921 1.55324 57.8758 
18 4 3.61661 6.26824 56.2363 
19 6 0.894407 4.69658 59.5156 
20 5 5.43141 3.12491 57.8758 
21 4 0.894407 4.69658 56.2364 
22 6 3.61661 3.12491 59.5156 
23 5 2.70921 4.69657 57.8758 
24 4 3.61661 3.12491 56.2364 
ITEM: TIMESTEP
21
ITEM: NUMBER OF ATOMS
24
ITEM: BOX BOUNDS pp pp pp
0.0000000000000000e+00 5.4444059999999999e+00
0.0000000000000000e+00 6.2866580000000001e+00
0.0000000000000000e+00 1.0662777000000000e+02
ITEM: ATOMS id type x y z 
1 3 5.43141 6.26824 53.2727 
2 2 0.894407 1.55324 51.6332 
3 1 5.43141 6.26824 49.9934 
4 3 2.70921 1.55325 53.2727 
5 2 3.61661 6.26824 51.6332 
6 1 2.70921 1.55325 49.9934 
7 3 5.43141 3.12491 53.2727 
8 2 0.894407 4.69658 51.6332 
9 1 5.43141 3.12491 49.9934 
10 3 2.70921 4.69658 53.2727 
11 2 3.61661 3.12491 51.6332 
12 1 2.70921 4.69658 49.9934 
13 6 0.894406 1.55325 59.5156 
14 5 5.43141 6.26824 57.8758 
15 4 0.894406 1.55325 56.2363 
16 6 3.61661 6.26824 59.5156 
17 5 2.70921 1.55324 57.8758 
18 4 3.61661 6.26824 56.2363 
19 6 0.894407 4.69658 59.5156 
20 5 5.43141 3.12491 57.8758 
21 4 0.894407 4.69658 56.2363 
22 6 3.61661 3.12491 59.5156 
23 5 2.70921 4.69658 57.8758 
24 4 3.61661 3.12491 56.2363 
ITEM: TIMESTEP
22
ITEM: NUMBER OF ATOMS
24
ITEM: BOX BOUNDS pp pp pp
0.0000000000000000e+00 5.4444059999999999e+00
0.0000000000000000e+00 6.2866580000000001e+00
0.0000000000000000e+00 1.0662777000000000e+02
ITEM: ATOMS id type x y z 
1 3 5.43141 6.26824 53.2727 
2 2 0.894407 1.55325 51.6332 
3 1 5.43141 6.26824 49.9934 
4 3 2.70921 1.55325 53.2727 
5 2 3.61661 6.26824 51.6332 
6 1 2.70921 1.55325 49.9934 
7 3 5.43141 3.12491 53.2727 
8 2 0.894407 4.69657 51.6332 
9 1 5.43141 3.12491 49.9934 
10 3 2.70921 4.69657 53.2727 
11 2 3.61661 3.12491 51.6332 
12 1 2.70921 4.69657 49.9934 
13 6 0.894406 1.55325 59.5156 
14 5 5.43141 6.26824 57.8758 
15 4 0.894407 1.55325 56.2363 
16 6 3.61661 6.26824 59.5156 
17 5 2.70921 1.55325 57.8758 
18 4 3.61661 6.26824 56.2363 
19 6 0.894407 4.69657 59.5156 
20 5 5.43141 3.12491 57.8758 
21 4 0.894407 4.69657 56.2363 
22 6 3.61661 3.12491 59.5156 
23 5 2.70921 4.69657 57.8758 
24 4 3.61661 3.12491 56.2363 
ITEM: TIMESTEP
23
ITEM: NUMBER OF ATOMS
24
ITEM: BOX BOUNDS pp pp pp
0.0000000000000000e+00 5.4444059999999999e+00
0.0000000000000000e+00 6.2866580000000001e+00
0.0000000000000000e+00 1.0662777000000000e+02
ITEM: ATOMS id type x y z 
1 3 5.43141 6.26824 53.2727 
2 2 0.894407 1.55325 51.6332 
3 1 5.43141 6.26824 49.9934 
4 3 2.70921 1.55325 53.2727 
5 2 3.61661 6.26824 51.6332 
6 1 2.70921 1.55325 49.9934 
7 3 5.43141 3.12491 53.2727 
8 2 0.894406 4.69657 51.6332 
9 1 5.43141 3.12491 49.9934 
10 3 2.70921 4.69657 53.2727 
11 2 3.61661 3.12491 51.6332 
12 1 2.70921 4.69657 49.9934 
13 6 0.894407 1.55325 59.5156 
14 5 5.43141 6.26824 57.8758 
15 4 0.894407 1.55325 56.2363 
16 6 3.61661 6.26824 59.5156 
17 5 2.70921 1.55325 57.8758 
18 4 3.61661 6.26824 56.2363 
19 6 0.894406 4.69657 59.5156 
20 5 5.43141 3.12491 57.8758 
21 4 0.894407 4.69657 56.2363 
22 6 3.61661 3.12491 59.5156 
23 5 2.70921 4.69657 57.8758 
24 4 3.61661 3.12491 56.2363 
ITEM: TIMESTEP
24
ITEM: NUMBER OF ATOMS
24
ITEM: BOX BOUNDS pp pp pp
0.0000000000000000e+00 5.4444059999999999e+00
0.0000000000000000e+00 6.2866580000000001e+00
0.0000000000000000e+00 1.0662777000000000e+02
ITEM: ATOMS id type x y z 
1 3 5.43141 6.26824 53.2727 
2 2 0.894407 1.55325 51.6332 
3 1 5.43141 6.26824 49.9934 
4 3 2.70921 1.55324 53.2727 
5 2 3.61661 6.26824 51.6332 
6 1 2.70921 1.55324 49.9934 
7 3 5.43141 3.12491 53.2727 
8 2 0.894406 4.69658 51.6332 
9 1 5.43141 3.12491 49.9934 
10 3 2.70921 4.69657 53.2727 
11 2 3.61661 3.12491 51.6332 
12 1 2.70921 4.69657 49.9934 
13 6 0.894407 1.55324 59.5156 
14 5 5.43141 6.26824 57.8758 
15 4 0.894407 1.55324 56.2363 
16 6 3.61661 6.26824 59.5156 
17 5 2.70921 1.55325 57.8758 
18 4 3.61661 6.26824 56.2363 
19 6 0.894406 4.69657 59.5156 
20 5 5.43141 3.12491 57.8758 
21 4 0.894406 4.69657 56.2363 
22 6 3.61661 3.12491 59.5156 
23 5 2.70921 4.69658 57.8758 
24 4 3.61661 3.12491 56.2363 
ITEM: TIMESTEP
25
ITEM: NUMBER OF ATOMS
24
ITEM: BOX BOUNDS pp pp pp
0.0000000000000000e+00 5.4444059999999999e+00
0.0000000000000000e+00 6.2866580000000001e+00
0.0000000000000000e+00 1.0662777000000000e+02
ITEM: ATOMS id type x y z 
1 3 5.43141 6.26824 53.2727 
2 2 0.894406 1.55325 51.6332 
3 1 5.43141 6.26824 49.9934 
4 3 2.70921 1.55324 53.2727 
5 2 3.61661 6.26824 51.6332 
6 1 2.70921 1.55324 49.9934 
7 3 5.43141 3.12491 53.2727 
8 2 0.894407 4.69658 51.6332 
9 1 5.43141 3.12491 49.9934 
10 3 2.70921 4.69657 53.2727 
11 2 3.61661 3.12491 51.6332 
12 1 2.70921 4.69657 49.9934 
13 6 0.894407 1.55324 59.5156 
14 5 5.43141 6.26824 57.8758 
15 4 0.894407 1.55324 56.2363 
16 6 3.61661 6.26824 59.5156 
17 5 2.70921 1.55325 57.8758 
18 4 3.61661 6.26824 56.2363 
19 6 0.894406 4.69657 59.5156 
20 5 5.43141 3.12491 57.8758 
21 4 0.894406 4.69657 56.2363 
22 6 3.61661 3.12491 59.5156 
23 5 2.70921 4.69658 57.8758 
24 4 3.61661 3.12491 56.2363 
ITEM: TIMESTEP
26
ITEM: NUMBER OF ATOMS
24
ITEM: BOX BOUNDS pp pp pp
0.0000000000000000e+00 5.4444059999999999e+00
0.0000000000000000e+00 6.2866580000000001e+00
0.0000000000000000e+00 1.0662777000000000e+02
ITEM: ATOMS id type x y z 
1 3 5.43141 6.26824 53.2727 
2 2 0.894406 1.55325 51.6332 
3 1 5.43141 6.26824 49.9934 
4 3 2.70921 1.55324 53.2727 
5 2 3.61661 6.26824 51.6332 
6 1 2.70921 1.55324 49.9934 
7 3 5.43141 3.12491 53.2727 
8 2 0.894407 4.69657 51.6332 
9 1 5.43141 3.12491 49.9934 
10 3 2.70921 4.69657 53.2727 
11 2 3.61661 3.12491 51.6332 
12 1 2.70921 4.69657 49.9934 
13 6 0.894407 1.55324 59.5156 
14 5 5.43141 6.26824 57.8758 
15 4 0.894407 1.55324 56.2363 
16 6 3.61661 6.26824 59.5156 
17 5 2.70921 1.55325 57.8758 
18 4 3.61661 6.26824 56.2363 
19 6 0.894407 4.69657 59.5156 
20 5 5.43141 3.12491 57.8758 
21 4 0.894407 4.69657 56.2363 
22 6 3.61661 3.12491 59.5156 
23 5 2.70921 4.69657 57.8758 
24 4 3.61661 3.12491 56.2363 
ITEM: TIMESTEP
27
ITEM: NUMBER OF ATOMS
24
ITEM: BOX BOUNDS pp pp pp
0.0000000000000000e+00 5.4444059999999999e+00
0.0000000000000000e+00 6.2866580000000001e+00
0.0000000000000000e+00 1.0662777000000000e+02
ITEM: ATOMS id type x y z 
1 3 5.43141 6.26824 53.2727 
2 2 0.894407 1.55325 51.6332 
3 1 5.43141 6.26824 49.9934 
4 3 2.70921 1.55325 53.2727 
5 2 3.61661 6.26824 51.6332 
6 1 2.70921 1.55324 49.9934 
7 3 5.43141 3.12491 53.2727 
8 2 0.894407 4.69658 51.6332 
9 1 5.43141 3.12491 49.9934 
10 3 2.70921 4.69657 53.2727 
11 2 3.61661 3.12491 51.6332 
12 1 2.70921 4.69657 49.9934 
13 6 0.894407 1.55324 59.5156 
14 5 5.43141 6.26824 57.8758 
15 4 0.894407 1.55325 56.2363 
16 6 3.61661 6.26824 59.5156 
17 5 2.70921 1.55325 57.8758 
18 4 3.61661 6.26824 56.2363 
19 6 0.894407 4.69657 59.5156 
20 5 5.43141 3.12491 57.8758 
21 4 0.894407 4.69657 56.2363 
22 6 3.61661 3.12491 59.5156 
23 5 2.70921 4.69658 57.8758 
24 4 3.61661 3.12491 56.2363 
ITEM: TIMESTEP
28
ITEM: NUMBER OF ATOMS
24
ITEM: BOX BOUNDS pp pp pp
0.0000000000000000e+00 5.4444059999999999e+00
0.0000000000000000e+00 6.2866580000000001e+00
0.0000000000000000e+00 1.0662777000000000e+02
ITEM: ATOMS id type x y z 
1 3 5.43141 6.26824 53.2727 
2 2 0.894407 1.55325 51.6332 
3 1 5.43141 6.26824 49.9934 
4 3 2.70921 1.55325 53.2727 
5 2 3.61661 6.26824 51.6332 
6 1 2.70921 1.55325 49.9934 
7 3 5.43141 3.12491 53.2727 
8 2 0.894406 4.69658 51.6332 
9 1 5.43141 3.12491 49.9934 
10 3 2.70921 4.69657 53.2727 
11 2 3.61661 3.12491 51.6332 
12 1 2.70921 4.69657 49.9934 
13 6 0.894407 1.55325 59.5156 
14 5 5.43141 6.26824 57.8758 
15 4 0.894406 1.55325 56.2363 
16 6 3.61661 6.26824 59.5156 
17 5 2.70921 1.55325 57.8758 
18 4 3.61661 6.26824 56.2363 
19 6 0.894407 4.69657 59.5156 
20 5 5.43141 3.12491 57.8758 
21 4 0.894407 4.69657 56.2363 
22 6 3.61661 3.12491 59.5156 
23 5 2.70921 4.69658 57.8758 
24 4 3.61661 3.12491 56.2363 
ITEM: TIMESTEP
29
ITEM: NUMBER OF ATOMS
24
ITEM: BOX BOUNDS pp pp pp
0.0000000000000000e+00 5.4444059999999999e+00
0.0000000000000000e+00 6.2866580000000001e+00
0.0000000000000000e+00 1.0662777000000000e+02
ITEM: ATOMS id type x y z 
1 3 5.43141 6.26824 53.2727 
2 2 0.894406 1.55325 51.6332 
3 1 5.43141 6.26824 49.9934 
4 3 2.70921 1.55325 53.2727 
5 2 3.61661 6.26824 51.6332 
6 1 2.70921 1.55325 49.9934 
7 3 5.43141 3.12491 53.2727 
8 2 0.894406 4.69657 51.6332 
9 1 5.43141 3.12491 49.9934 
10 3 2.70921 4.69657 53.2727 
11 2 3.61661 3.12491 51.6332 
12 1 2.70921 4.69657 49.9934 
13 6 0.894406 1.55325 59.5156 
14 5 5.43141 6.26824 57.8758 
15 4 0.894406 1.55325 56.2363 
16 6 3.61661 6.26824 59.5156 
17 5 2.70921 1.55325 57.8758 
18 4 3.61661 6.26824 56.2363 
19 6 0.894407 4.69657 59.5156 
20 5 5.43141 3.12491 57.8758 
21 4 0.894407 4.69657 56.2363 
22 6 3.61661 3.12491 59.5156 
23 5 2.70921 4.69657 57.8758 
24 4 3.61661 3.12491 56.2363 
ITEM: TIMESTEP
30
ITEM: NUMBER OF ATOMS
24
ITEM: BOX BOUNDS pp pp pp
0.0000000000000000e+00 5.4444059999999999e+00
0.0000000000000000e+00 6.2866580000000001e+00
0.0000000000000000e+00 1.0662777000000000e+02
ITEM: ATOMS id type x y z 
1 3 5.43141 6.26824 53.2727 
2 2 0.894407 1.55325 51.6332 
3 1 5.43141 6.26824 49.9934 
4 3 2.70921 1.55325 53.2727 
5 2 3.61661 6.26824 51.6332 
6 1 2.70921 1.55325 49.9934 
7 3 5.43141 3.12491 53.2727 
8 2 0.894407 4.69657 51.6332 
9 1 5.43141 3.12491 49.9934 
10 3 2.70921 4.69657 53.2727 
11 2 3.61661 3.12491 51.6332 
12 1 2.70921 4.69657 49.9934 
13 6 0.894407 1.55325 59.5156 
14 5 5.43141 6.26824 57.8758 
15 4 0.894407 1.55325 56.2363 
16 6 3.61661 6.26824 59.5156 
17 5 2.70921 1.55325 57.8758 
18 4 3.61661 6.26824 56.2363 
19 6 0.894407 4.69657 59.5156 
20 5 5.43141 3.12491 57.8758 
21 4 0.894407 4.69657 56.2363 
22 6 3.61661 3.12491 59.5156 
23 5 2.70921 4.69657 57.8758 
24 4 3.61661 3.12491 56.2363 
ITEM: TIMESTEP
31
ITEM: NUMBER OF ATOMS
24
ITEM: BOX BOUNDS pp pp pp
0.0000000000000000e+00 5.4444059999999999e+00
0.0000000000000000e+00 6.2866580000000001e+00
0.0000000000000000e+00 1.0662777000000000e+02
ITEM: ATOMS id type x y z 
1 3 5.43141 6.26824 53.2727 
2 2 0.894407 1.55325 51.6332 
3 1 5.43141 6.26824 49.9934 
4 3 2.70921 1.55325 53.2727 
5 2 3.61661 6.26824 51.6332 
6 1 2.70921 1.55325 49.9934 
7 3 5.43141 3.12491 53.2727 
8 2 0.894407 4.69657 51.6332 
9 1 5.43141 3.12491 49.9934 
10 3 2.70921 4.69657 53.2727 
11 2 3.61661 3.12491 51.6332 
12 1 2.70921 4.69657 49.9934 
13 6 0.894407 1.55325 59.5156 